<?xml version="1.0" encoding="UTF-8"?>

<!-- generated on 2025-04-21 21:11:33 by Eclipse SUMO sumo Version 1.22.0
<sumoConfiguration xmlns:xsi="http://www.w3.org/2001/XMLSchema-instance" xsi:noNamespaceSchemaLocation="http://sumo.dlr.de/xsd/sumoConfiguration.xsd">

    <input>
        <net-file value="/home/kalset1/Documents/cmu/robo/16831/project/RESCO/resco_benchmark/environments/ingolstadt7/ingolstadt7.net.xml"/>
        <route-files value="/home/kalset1/Documents/cmu/robo/16831/project/RESCO/resco_benchmark/environments/ingolstadt7/ingolstadt7.rou.xml"/>
    </input>

    <output>
        <tripinfo-output value="/home/kalset1/Documents/cmu/robo/16831/project/RESCO/results/IDQN-tr0-ingolstadt7-7-drq_norm-wait_norm/tripinfo_2.xml"/>
        <tripinfo-output.write-unfinished value="true"/>
    </output>

    <time>
        <begin value="57600"/>
        <end value="61200"/>
    </time>

    <processing>
        <time-to-teleport value="-1"/>
    </processing>

    <report>
        <no-warnings value="True"/>
        <no-step-log value="True"/>
    </report>

    <traci_server>
        <remote-port value="37029"/>
    </traci_server>

    <random_number>
        <random value="true"/>
    </random_number>

</sumoConfiguration>
-->

<tripinfos xmlns:xsi="http://www.w3.org/2001/XMLSchema-instance" xsi:noNamespaceSchemaLocation="http://sumo.dlr.de/xsd/tripinfo_file.xsd">
    <tripinfo id="carIn105842:1" depart="57601.00" departLane="653473569#5_1" departPos="5.10" departSpeed="0.00" departDelay="0.80" arrival="57649.00" arrivalLane="201956811#0_1" arrivalPos="40.40" arrivalSpeed="13.03" duration="48.00" routeLength="313.24" waitingTime="9.00" waitingCount="2" stopTime="0.00" timeLoss="22.40" rerouteNo="1" devices="tripinfo_carIn105842:1 routing_carIn105842:1" vType="default_016" speedFactor="0.94" vaporized=""/>
    <tripinfo id="carIn28951:1" depart="57606.00" departLane="10425609#0_1" departPos="5.10" departSpeed="0.00" departDelay="0.20" arrival="57649.00" arrivalLane="-653473569#5_1" arrivalPos="73.05" arrivalSpeed="12.59" duration="43.00" routeLength="312.95" waitingTime="9.00" waitingCount="1" stopTime="0.00" timeLoss="17.37" rerouteNo="1" devices="tripinfo_carIn28951:1 routing_carIn28951:1" vType="default_016" speedFactor="0.96" vaporized=""/>
    <tripinfo id="carIn106322:1" depart="57614.00" departLane="653473569#5_1" departPos="5.10" departSpeed="0.00" departDelay="2.20" arrival="57650.00" arrivalLane="201956811#0_1" arrivalPos="40.40" arrivalSpeed="12.65" duration="36.00" routeLength="313.24" waitingTime="0.00" waitingCount="0" stopTime="0.00" timeLoss="12.45" rerouteNo="1" devices="tripinfo_carIn106322:1 routing_carIn106322:1" vType="default_016" speedFactor="1.00" vaporized=""/>
    <tripinfo id="carIn89578:1" depart="57613.00" departLane="124812856#0_1" departPos="5.10" departSpeed="0.00" departDelay="2.60" arrival="57652.00" arrivalLane="201956810_1" arrivalPos="71.65" arrivalSpeed="13.94" duration="39.00" routeLength="134.91" waitingTime="17.00" waitingCount="2" stopTime="0.00" timeLoss="28.68" rerouteNo="1" devices="tripinfo_carIn89578:1 routing_carIn89578:1" vType="default_016" speedFactor="1.01" vaporized=""/>
    <tripinfo id="carIn5482:1" depart="57617.00" departLane="653473569#5_1" departPos="5.10" departSpeed="0.00" departDelay="3.60" arrival="57652.00" arrivalLane="201956811#0_1" arrivalPos="40.40" arrivalSpeed="13.81" duration="35.00" routeLength="313.24" waitingTime="0.00" waitingCount="0" stopTime="0.00" timeLoss="12.02" rerouteNo="1" devices="tripinfo_carIn5482:1 routing_carIn5482:1" vType="default_016" speedFactor="1.02" vaporized=""/>
    <tripinfo id="h20232c1:2" depart="57634.00" departLane="-173169611#0_1" departPos="5.10" departSpeed="0.00" departDelay="0.50" arrival="57657.00" arrivalLane="201956820_1" arrivalPos="48.33" arrivalSpeed="12.42" duration="23.00" routeLength="122.35" waitingTime="4.00" waitingCount="1" stopTime="0.00" timeLoss="12.35" rerouteNo="0" devices="tripinfo_h20232c1:2 routing_h20232c1:2" vType="default_016" speedFactor="0.97" vaporized=""/>
    <tripinfo id="h15454c2:3" depart="57612.00" departLane="24608844_1" departPos="5.10" departSpeed="0.00" departDelay="0.50" arrival="57658.00" arrivalLane="32978638#0_1" arrivalPos="49.29" arrivalSpeed="10.90" duration="46.00" routeLength="354.79" waitingTime="0.00" waitingCount="0" stopTime="0.00" timeLoss="5.88" rerouteNo="1" devices="tripinfo_h15454c2:3 routing_h15454c2:3" vType="default_016" speedFactor="0.85" vaporized=""/>
    <tripinfo id="randUni10474:1" depart="57605.00" departLane="124812856#0_1" departPos="5.10" departSpeed="0.00" departDelay="0.20" arrival="57659.00" arrivalLane="-653473569#5_1" arrivalPos="73.05" arrivalSpeed="15.18" duration="54.00" routeLength="450.40" waitingTime="9.00" waitingCount="1" stopTime="0.00" timeLoss="24.39" rerouteNo="1" devices="tripinfo_randUni10474:1 routing_randUni10474:1" vType="random_016" speedFactor="1.12" vaporized=""/>
    <tripinfo id="carIn107084:1" depart="57601.00" departLane="124812856#0_1" departPos="5.10" departSpeed="0.00" departDelay="0.70" arrival="57663.00" arrivalLane="-653473569#5_1" arrivalPos="73.05" arrivalSpeed="11.47" duration="62.00" routeLength="450.40" waitingTime="13.00" waitingCount="1" stopTime="0.00" timeLoss="25.09" rerouteNo="1" devices="tripinfo_carIn107084:1 routing_carIn107084:1" vType="default_016" speedFactor="0.91" vaporized=""/>
    <tripinfo id="carIn36103:1" depart="57620.00" departLane="653473569#5_1" departPos="5.10" departSpeed="0.00" departDelay="4.00" arrival="57669.00" arrivalLane="201956811#0_1" arrivalPos="40.40" arrivalSpeed="12.50" duration="49.00" routeLength="313.24" waitingTime="9.00" waitingCount="2" stopTime="0.00" timeLoss="24.70" rerouteNo="1" devices="tripinfo_carIn36103:1 routing_carIn36103:1" vType="default_016" speedFactor="0.98" vaporized=""/>
    <tripinfo id="carIn25202:1" depart="57629.00" departLane="315358253#1_1" departPos="5.10" departSpeed="0.00" departDelay="1.50" arrival="57670.00" arrivalLane="32978638#0_1" arrivalPos="49.29" arrivalSpeed="13.89" duration="41.00" routeLength="405.15" waitingTime="2.00" waitingCount="1" stopTime="0.00" timeLoss="12.38" rerouteNo="1" devices="tripinfo_carIn25202:1 routing_carIn25202:1" vType="default_016" speedFactor="1.08" vaporized=""/>
    <tripinfo id="carIn28488:1" depart="57611.00" departLane="653473569#5_1" departPos="5.10" departSpeed="0.00" departDelay="0.80" arrival="57671.00" arrivalLane="201956820_1" arrivalPos="48.33" arrivalSpeed="12.92" duration="60.00" routeLength="437.07" waitingTime="13.00" waitingCount="1" stopTime="0.00" timeLoss="26.80" rerouteNo="1" devices="tripinfo_carIn28488:1 routing_carIn28488:1" vType="default_016" speedFactor="0.99" vaporized=""/>
    <tripinfo id="60R.41" depart="57623.00" departLane="27920078#0_1" departPos="12.10" departSpeed="0.00" departDelay="0.30" arrival="57674.00" arrivalLane="201956811#0_1" arrivalPos="40.40" arrivalSpeed="9.67" duration="51.00" routeLength="425.03" waitingTime="3.00" waitingCount="1" stopTime="0.00" timeLoss="20.03" rerouteNo="1" devices="tripinfo_60R.41 routing_60R.41" vType="bus" speedFactor="1.00" vaporized=""/>
    <tripinfo id="carIn102997:1" depart="57623.00" departLane="653473569#5_1" departPos="5.10" departSpeed="0.00" departDelay="4.80" arrival="57677.00" arrivalLane="201956811#0_1" arrivalPos="40.40" arrivalSpeed="11.05" duration="54.00" routeLength="313.24" waitingTime="5.00" waitingCount="2" stopTime="0.00" timeLoss="25.25" rerouteNo="1" devices="tripinfo_carIn102997:1 routing_carIn102997:1" vType="default_016" speedFactor="0.84" vaporized=""/>
    <tripinfo id="carIn75554:1" depart="57626.00" departLane="653473569#5_1" departPos="5.10" departSpeed="0.00" departDelay="5.20" arrival="57680.00" arrivalLane="201956811#0_1" arrivalPos="40.40" arrivalSpeed="14.06" duration="54.00" routeLength="313.24" waitingTime="8.00" waitingCount="3" stopTime="0.00" timeLoss="32.72" rerouteNo="1" devices="tripinfo_carIn75554:1 routing_carIn75554:1" vType="default_016" speedFactor="1.10" vaporized=""/>
    <tripinfo id="h645c1:1" depart="57622.00" departLane="266565295#5_1" departPos="5.10" departSpeed="0.00" departDelay="0.40" arrival="57681.00" arrivalLane="-315358253#1_1" arrivalPos="63.90" arrivalSpeed="11.74" duration="59.00" routeLength="547.76" waitingTime="4.00" waitingCount="1" stopTime="0.00" timeLoss="15.03" rerouteNo="1" devices="tripinfo_h645c1:1 routing_h645c1:1" vType="default_016" speedFactor="0.93" vaporized=""/>
    <tripinfo id="carIn925:1" depart="57655.00" departLane="124812856#0_1" departPos="5.10" departSpeed="0.00" departDelay="28.90" arrival="57682.00" arrivalLane="201956810_1" arrivalPos="71.65" arrivalSpeed="15.70" duration="27.00" routeLength="134.91" waitingTime="5.00" waitingCount="1" stopTime="0.00" timeLoss="17.19" rerouteNo="1" devices="tripinfo_carIn925:1 routing_carIn925:1" vType="default_016" speedFactor="1.17" vaporized=""/>
    <tripinfo id="randUni20090:1" depart="57629.00" departLane="653473569#5_1" departPos="5.10" departSpeed="0.00" departDelay="1.00" arrival="57683.00" arrivalLane="201956811#0_1" arrivalPos="40.40" arrivalSpeed="12.15" duration="54.00" routeLength="313.24" waitingTime="3.00" waitingCount="2" stopTime="0.00" timeLoss="28.83" rerouteNo="1" devices="tripinfo_randUni20090:1 routing_randUni20090:1" vType="random_016" speedFactor="0.96" vaporized=""/>
    <tripinfo id="carIn77943:1" depart="57607.00" departLane="124812856#0_1" departPos="5.10" departSpeed="0.00" departDelay="1.50" arrival="57685.00" arrivalLane="-653473569#5_1" arrivalPos="73.05" arrivalSpeed="13.11" duration="78.00" routeLength="450.40" waitingTime="26.00" waitingCount="2" stopTime="0.00" timeLoss="44.69" rerouteNo="1" devices="tripinfo_carIn77943:1 routing_carIn77943:1" vType="default_016" speedFactor="1.01" vaporized=""/>
    <tripinfo id="carIn81046:1" depart="57610.00" departLane="124812856#0_1" departPos="5.10" departSpeed="0.00" departDelay="1.50" arrival="57687.00" arrivalLane="-653473569#5_1" arrivalPos="73.05" arrivalSpeed="14.21" duration="77.00" routeLength="450.40" waitingTime="23.00" waitingCount="2" stopTime="0.00" timeLoss="45.68" rerouteNo="1" devices="tripinfo_carIn81046:1 routing_carIn81046:1" vType="default_016" speedFactor="1.09" vaporized=""/>
    <tripinfo id="carIn33538:1" depart="57671.00" departLane="37386279_1" departPos="5.10" departSpeed="0.00" departDelay="0.30" arrival="57687.00" arrivalLane="-24634414#4_1" arrivalPos="22.88" arrivalSpeed="8.06" duration="16.00" routeLength="125.23" waitingTime="0.00" waitingCount="0" stopTime="0.00" timeLoss="4.04" rerouteNo="0" devices="tripinfo_carIn33538:1 routing_carIn33538:1" vType="default_016" speedFactor="0.98" vaporized=""/>
    <tripinfo id="carIn124416:1" depart="57663.00" departLane="-173169611#0_1" departPos="5.10" departSpeed="0.00" departDelay="0.50" arrival="57696.00" arrivalLane="201956820_1" arrivalPos="48.33" arrivalSpeed="12.07" duration="33.00" routeLength="122.35" waitingTime="14.00" waitingCount="1" stopTime="0.00" timeLoss="22.37" rerouteNo="0" devices="tripinfo_carIn124416:1 routing_carIn124416:1" vType="default_016" speedFactor="0.92" vaporized=""/>
    <tripinfo id="h21130c2:1" depart="57630.00" departLane="10425609#0_1" departPos="5.10" departSpeed="0.00" departDelay="0.10" arrival="57697.00" arrivalLane="202070434#2_1" arrivalPos="39.03" arrivalSpeed="12.73" duration="67.00" routeLength="432.30" waitingTime="17.00" waitingCount="2" stopTime="0.00" timeLoss="34.41" rerouteNo="1" devices="tripinfo_h21130c2:1 routing_h21130c2:1" vType="default_016" speedFactor="0.99" vaporized=""/>
    <tripinfo id="carIn55461:1" depart="57652.00" departLane="10425609#0_1" departPos="5.10" departSpeed="0.00" departDelay="0.30" arrival="57698.00" arrivalLane="201956810_1" arrivalPos="71.65" arrivalSpeed="12.47" duration="46.00" routeLength="255.78" waitingTime="9.00" waitingCount="2" stopTime="0.00" timeLoss="25.59" rerouteNo="1" devices="tripinfo_carIn55461:1 routing_carIn55461:1" vType="default_016" speedFactor="0.98" vaporized=""/>
    <tripinfo id="carIn113711:1" depart="57601.00" departLane="-24693977#1_1" departPos="5.10" departSpeed="0.00" departDelay="0.70" arrival="57699.00" arrivalLane="-266565295#5_1" arrivalPos="172.76" arrivalSpeed="13.98" duration="98.00" routeLength="840.03" waitingTime="24.00" waitingCount="2" stopTime="0.00" timeLoss="40.00" rerouteNo="1" devices="tripinfo_carIn113711:1 routing_carIn113711:1" vType="default_016" speedFactor="1.07" vaporized=""/>
    <tripinfo id="carIn96537:1" depart="57614.00" departLane="124812856#0_1" departPos="5.10" departSpeed="0.00" departDelay="2.80" arrival="57699.00" arrivalLane="202070434#2_1" arrivalPos="39.03" arrivalSpeed="14.20" duration="85.00" routeLength="569.75" waitingTime="17.00" waitingCount="3" stopTime="0.00" timeLoss="44.90" rerouteNo="1" devices="tripinfo_carIn96537:1 routing_carIn96537:1" vType="default_016" speedFactor="1.02" vaporized=""/>
    <tripinfo id="carIn115641:1" depart="57614.00" departLane="-24693977#1_1" departPos="5.10" departSpeed="0.00" departDelay="0.90" arrival="57699.00" arrivalLane="-266565295#5_2" arrivalPos="172.76" arrivalSpeed="14.10" duration="85.00" routeLength="840.03" waitingTime="8.00" waitingCount="2" stopTime="0.00" timeLoss="27.41" rerouteNo="1" devices="tripinfo_carIn115641:1 routing_carIn115641:1" vType="default_016" speedFactor="1.07" vaporized=""/>
    <tripinfo id="carIn12152:1" depart="57647.00" departLane="24599188#0.94_1" departPos="5.10" departSpeed="0.00" departDelay="0.50" arrival="57699.00" arrivalLane="24693977#1_1" arrivalPos="96.83" arrivalSpeed="16.21" duration="52.00" routeLength="511.77" waitingTime="0.00" waitingCount="0" stopTime="0.00" timeLoss="10.89" rerouteNo="1" devices="tripinfo_carIn12152:1 routing_carIn12152:1" vType="default_016" speedFactor="1.17" vaporized=""/>
    <tripinfo id="carIn55090:1" depart="57666.00" departLane="-173169611#0_1" departPos="5.10" departSpeed="0.00" departDelay="1.40" arrival="57706.00" arrivalLane="201956820_1" arrivalPos="48.33" arrivalSpeed="13.17" duration="40.00" routeLength="122.35" waitingTime="18.00" waitingCount="2" stopTime="0.00" timeLoss="30.23" rerouteNo="0" devices="tripinfo_carIn55090:1 routing_carIn55090:1" vType="default_016" speedFactor="1.03" vaporized=""/>
    <tripinfo id="carIn131078:1" depart="57691.00" departLane="124812856#0_1" departPos="5.10" departSpeed="0.00" departDelay="55.60" arrival="57707.00" arrivalLane="201956810_1" arrivalPos="71.65" arrivalSpeed="12.18" duration="16.00" routeLength="134.91" waitingTime="0.00" waitingCount="0" stopTime="0.00" timeLoss="3.85" rerouteNo="1" devices="tripinfo_carIn131078:1 routing_carIn131078:1" vType="default_016" speedFactor="0.91" vaporized=""/>
    <tripinfo id="carIn114137:1" depart="57634.00" departLane="27920078#0_1" departPos="5.10" departSpeed="0.00" departDelay="3.10" arrival="57708.00" arrivalLane="-83304175#2_1" arrivalPos="189.34" arrivalSpeed="6.62" duration="74.00" routeLength="501.51" waitingTime="7.00" waitingCount="1" stopTime="0.00" timeLoss="21.33" rerouteNo="1" devices="tripinfo_carIn114137:1 routing_carIn114137:1" vType="default_016" speedFactor="0.90" vaporized=""/>
    <tripinfo id="carIn37268:1" depart="57636.00" departLane="653473569#5_1" departPos="5.10" departSpeed="0.00" departDelay="0.90" arrival="57708.00" arrivalLane="201956811#0_1" arrivalPos="40.40" arrivalSpeed="13.74" duration="72.00" routeLength="313.24" waitingTime="15.00" waitingCount="2" stopTime="0.00" timeLoss="49.98" rerouteNo="1" devices="tripinfo_carIn37268:1 routing_carIn37268:1" vType="default_016" speedFactor="1.08" vaporized=""/>
    <tripinfo id="carIn22637:1" depart="57635.00" departLane="27920078#0_1" departPos="5.10" departSpeed="0.00" departDelay="2.50" arrival="57710.00" arrivalLane="-83304175#2_1" arrivalPos="189.34" arrivalSpeed="8.11" duration="75.00" routeLength="501.51" waitingTime="9.00" waitingCount="3" stopTime="0.00" timeLoss="26.63" rerouteNo="1" devices="tripinfo_carIn22637:1 routing_carIn22637:1" vType="default_016" speedFactor="0.98" vaporized=""/>
    <tripinfo id="carIn129760:1" depart="57661.00" departLane="653473569#5_1" departPos="5.10" departSpeed="0.00" departDelay="0.80" arrival="57711.00" arrivalLane="201956811#0_1" arrivalPos="40.40" arrivalSpeed="12.00" duration="50.00" routeLength="313.24" waitingTime="6.00" waitingCount="2" stopTime="0.00" timeLoss="23.41" rerouteNo="1" devices="tripinfo_carIn129760:1 routing_carIn129760:1" vType="default_016" speedFactor="0.89" vaporized=""/>
    <tripinfo id="carIn77438:1" depart="57617.00" departLane="124812856#0_1" departPos="5.10" departSpeed="0.00" departDelay="4.10" arrival="57712.00" arrivalLane="-653473569#5_1" arrivalPos="73.05" arrivalSpeed="11.91" duration="95.00" routeLength="450.40" waitingTime="32.00" waitingCount="5" stopTime="0.00" timeLoss="58.37" rerouteNo="1" devices="tripinfo_carIn77438:1 routing_carIn77438:1" vType="default_016" speedFactor="0.90" vaporized=""/>
    <tripinfo id="h19804c1:3" depart="57622.00" departLane="124812856#0_1" departPos="5.10" departSpeed="0.00" departDelay="6.50" arrival="57714.00" arrivalLane="-653473569#5_1" arrivalPos="73.05" arrivalSpeed="13.52" duration="92.00" routeLength="450.40" waitingTime="29.00" waitingCount="4" stopTime="0.00" timeLoss="58.99" rerouteNo="1" devices="tripinfo_h19804c1:3 routing_h19804c1:3" vType="default_016" speedFactor="1.01" vaporized=""/>
    <tripinfo id="h20540c1:1" depart="57634.00" departLane="10425609#0_1" departPos="5.10" departSpeed="0.00" departDelay="0.50" arrival="57717.00" arrivalLane="-653473569#5_1" arrivalPos="73.05" arrivalSpeed="11.81" duration="83.00" routeLength="312.95" waitingTime="32.00" waitingCount="4" stopTime="0.00" timeLoss="55.14" rerouteNo="1" devices="tripinfo_h20540c1:1 routing_h20540c1:1" vType="default_016" speedFactor="0.86" vaporized=""/>
    <tripinfo id="carIn7887:1" depart="57661.00" departLane="27920078#0_1" departPos="5.10" departSpeed="0.00" departDelay="0.50" arrival="57717.00" arrivalLane="-83304175#2_1" arrivalPos="189.34" arrivalSpeed="7.28" duration="56.00" routeLength="501.51" waitingTime="0.00" waitingCount="0" stopTime="0.00" timeLoss="6.90" rerouteNo="1" devices="tripinfo_carIn7887:1 routing_carIn7887:1" vType="default_016" speedFactor="0.96" vaporized=""/>
    <tripinfo id="carIn79400:1" depart="57604.00" departLane="-24693977#1_1" departPos="5.10" departSpeed="0.00" departDelay="0.10" arrival="57718.00" arrivalLane="-266565295#5_1" arrivalPos="172.76" arrivalSpeed="12.90" duration="114.00" routeLength="840.03" waitingTime="27.00" waitingCount="3" stopTime="0.00" timeLoss="50.14" rerouteNo="1" devices="tripinfo_carIn79400:1 routing_carIn79400:1" vType="default_016" speedFactor="0.98" vaporized=""/>
    <tripinfo id="carIn12775:1" depart="57677.00" departLane="10425609#0_1" departPos="5.10" departSpeed="0.00" departDelay="1.60" arrival="57719.00" arrivalLane="-653473569#5_1" arrivalPos="73.05" arrivalSpeed="12.86" duration="42.00" routeLength="312.95" waitingTime="2.00" waitingCount="1" stopTime="0.00" timeLoss="17.77" rerouteNo="1" devices="tripinfo_carIn12775:1 routing_carIn12775:1" vType="default_016" speedFactor="1.01" vaporized=""/>
    <tripinfo id="carIn10158:1" depart="57622.00" departLane="-24693977#1_1" departPos="5.10" departSpeed="0.00" departDelay="0.80" arrival="57720.00" arrivalLane="-266565295#5_1" arrivalPos="172.76" arrivalSpeed="14.84" duration="98.00" routeLength="840.03" waitingTime="22.00" waitingCount="2" stopTime="0.00" timeLoss="40.68" rerouteNo="1" devices="tripinfo_carIn10158:1 routing_carIn10158:1" vType="default_016" speedFactor="1.08" vaporized=""/>
    <tripinfo id="carIn26410:1" depart="57620.00" departLane="124812856#0_1" departPos="5.10" departSpeed="0.00" departDelay="6.50" arrival="57727.00" arrivalLane="202070434#2_1" arrivalPos="39.03" arrivalSpeed="14.40" duration="107.00" routeLength="569.75" waitingTime="39.00" waitingCount="4" stopTime="0.00" timeLoss="70.38" rerouteNo="1" devices="tripinfo_carIn26410:1 routing_carIn26410:1" vType="default_016" speedFactor="1.12" vaporized=""/>
    <tripinfo id="h3688c1:1" depart="57679.00" departLane="315358253#1_1" departPos="5.10" departSpeed="0.00" departDelay="0.50" arrival="57727.00" arrivalLane="32978638#0_1" arrivalPos="49.29" arrivalSpeed="13.35" duration="48.00" routeLength="405.15" waitingTime="6.00" waitingCount="1" stopTime="0.00" timeLoss="18.08" rerouteNo="1" devices="tripinfo_h3688c1:1 routing_h3688c1:1" vType="default_016" speedFactor="1.02" vaporized=""/>
    <tripinfo id="carIn51024:1" depart="57625.00" departLane="124812856#0_1" departPos="5.10" departSpeed="0.00" departDelay="8.90" arrival="57729.00" arrivalLane="202070434#2_1" arrivalPos="39.03" arrivalSpeed="14.62" duration="104.00" routeLength="569.75" waitingTime="40.00" waitingCount="3" stopTime="0.00" timeLoss="67.36" rerouteNo="1" devices="tripinfo_carIn51024:1 routing_carIn51024:1" vType="default_016" speedFactor="1.12" vaporized=""/>
    <tripinfo id="60.39" depart="57643.00" departLane="10425609#0_1" departPos="12.10" departSpeed="0.00" departDelay="0.50" arrival="57732.00" arrivalLane="202070434#2_2" arrivalPos="39.03" arrivalSpeed="13.60" duration="89.00" routeLength="425.30" waitingTime="22.00" waitingCount="4" stopTime="0.00" timeLoss="57.49" rerouteNo="1" devices="tripinfo_60.39 routing_60.39" vType="bus" speedFactor="1.00" vaporized=""/>
    <tripinfo id="h5292c2:1" depart="57656.00" departLane="-24693977#1_1" departPos="5.10" departSpeed="0.00" departDelay="0.00" arrival="57735.00" arrivalLane="-266565295#5_1" arrivalPos="172.76" arrivalSpeed="14.51" duration="79.00" routeLength="840.03" waitingTime="8.00" waitingCount="1" stopTime="0.00" timeLoss="23.92" rerouteNo="1" devices="tripinfo_h5292c2:1 routing_h5292c2:1" vType="default_016" speedFactor="1.12" vaporized=""/>
    <tripinfo id="h19699c1:3" depart="57646.00" departLane="27920078#0_1" departPos="5.10" departSpeed="0.00" departDelay="7.60" arrival="57737.00" arrivalLane="-266565295#5_2" arrivalPos="172.76" arrivalSpeed="15.23" duration="91.00" routeLength="1199.37" waitingTime="0.00" waitingCount="0" stopTime="0.00" timeLoss="13.30" rerouteNo="1" devices="tripinfo_h19699c1:3 routing_h19699c1:3" vType="default_016" speedFactor="1.12" vaporized=""/>
    <tripinfo id="carIn52610:1" depart="57615.00" departLane="-24693977#1_1" departPos="5.10" departSpeed="0.00" departDelay="0.10" arrival="57740.00" arrivalLane="-266565295#5_1" arrivalPos="172.76" arrivalSpeed="11.76" duration="125.00" routeLength="840.03" waitingTime="30.00" waitingCount="3" stopTime="0.00" timeLoss="54.00" rerouteNo="1" devices="tripinfo_carIn52610:1 routing_carIn52610:1" vType="default_016" speedFactor="0.87" vaporized=""/>
    <tripinfo id="carIn111853:1" depart="57633.00" departLane="27920078#0_1" departPos="5.10" departSpeed="0.00" departDelay="3.80" arrival="57742.00" arrivalLane="-266565295#5_1" arrivalPos="172.76" arrivalSpeed="14.75" duration="109.00" routeLength="1204.91" waitingTime="10.00" waitingCount="1" stopTime="0.00" timeLoss="30.59" rerouteNo="1" devices="tripinfo_carIn111853:1 routing_carIn111853:1" vType="default_016" speedFactor="1.12" vaporized=""/>
    <tripinfo id="carIn12900:1" depart="57710.00" departLane="124812856#0_1" departPos="5.10" departSpeed="0.00" departDelay="61.80" arrival="57742.00" arrivalLane="201956810_1" arrivalPos="71.65" arrivalSpeed="13.71" duration="32.00" routeLength="134.91" waitingTime="8.00" waitingCount="1" stopTime="0.00" timeLoss="21.19" rerouteNo="1" devices="tripinfo_carIn12900:1 routing_carIn12900:1" vType="default_016" speedFactor="1.01" vaporized=""/>
    <tripinfo id="h18569c2:1" depart="57647.00" departLane="27920078#0_1" departPos="5.10" departSpeed="0.00" departDelay="7.00" arrival="57743.00" arrivalLane="-266565295#5_1" arrivalPos="172.76" arrivalSpeed="13.24" duration="96.00" routeLength="1199.37" waitingTime="0.00" waitingCount="0" stopTime="0.00" timeLoss="10.93" rerouteNo="1" devices="tripinfo_h18569c2:1 routing_h18569c2:1" vType="default_016" speedFactor="1.02" vaporized=""/>
    <tripinfo id="carIn106665:1" depart="57659.00" departLane="266565295#5_1" departPos="5.10" departSpeed="0.00" departDelay="1.80" arrival="57744.00" arrivalLane="24693977#1_1" arrivalPos="96.83" arrivalSpeed="13.35" duration="85.00" routeLength="834.40" waitingTime="7.00" waitingCount="1" stopTime="0.00" timeLoss="21.76" rerouteNo="1" devices="tripinfo_carIn106665:1 routing_carIn106665:1" vType="default_016" speedFactor="0.97" vaporized=""/>
    <tripinfo id="h317c2:1" depart="57707.00" departLane="-32978638#0_1" departPos="5.10" departSpeed="0.00" departDelay="0.10" arrival="57745.00" arrivalLane="-266565295#5_1" arrivalPos="172.76" arrivalSpeed="13.27" duration="38.00" routeLength="370.53" waitingTime="0.00" waitingCount="0" stopTime="0.00" timeLoss="11.48" rerouteNo="1" devices="tripinfo_h317c2:1 routing_h317c2:1" vType="default_016" speedFactor="1.03" vaporized=""/>
    <tripinfo id="h3568c1:3" depart="57656.00" departLane="266565295#5_1" departPos="5.10" departSpeed="0.00" departDelay="0.80" arrival="57747.00" arrivalLane="-24634415_1" arrivalPos="64.03" arrivalSpeed="13.38" duration="91.00" routeLength="810.20" waitingTime="8.00" waitingCount="1" stopTime="0.00" timeLoss="26.87" rerouteNo="1" devices="tripinfo_h3568c1:3 routing_h3568c1:3" vType="default_016" speedFactor="1.03" vaporized=""/>
    <tripinfo id="h9894c1:3" depart="57698.00" departLane="-24693977#1_1" departPos="5.10" departSpeed="0.00" departDelay="0.20" arrival="57748.00" arrivalLane="32978638#0_1" arrivalPos="49.29" arrivalSpeed="17.34" duration="50.00" routeLength="677.49" waitingTime="0.00" waitingCount="0" stopTime="0.00" timeLoss="10.32" rerouteNo="1" devices="tripinfo_h9894c1:3 routing_h9894c1:3" vType="default_016" speedFactor="1.28" vaporized=""/>
    <tripinfo id="carIn129626:1" depart="57664.00" departLane="653473569#5_1" departPos="5.10" departSpeed="0.00" departDelay="1.60" arrival="57752.00" arrivalLane="201956811#0_1" arrivalPos="40.40" arrivalSpeed="10.77" duration="88.00" routeLength="313.24" waitingTime="44.00" waitingCount="3" stopTime="0.00" timeLoss="60.17" rerouteNo="1" devices="tripinfo_carIn129626:1 routing_carIn129626:1" vType="default_016" speedFactor="0.86" vaporized=""/>
    <tripinfo id="randUni5403:1" depart="57632.00" departLane="315358253#1_1" departPos="5.10" departSpeed="0.00" departDelay="2.90" arrival="57754.00" arrivalLane="-653473569#5_1" arrivalPos="73.05" arrivalSpeed="15.14" duration="122.00" routeLength="974.99" waitingTime="34.00" waitingCount="3" stopTime="0.00" timeLoss="57.19" rerouteNo="1" devices="tripinfo_randUni5403:1 routing_randUni5403:1" vType="random_016" speedFactor="1.10" vaporized=""/>
    <tripinfo id="h20539c1:3" depart="57667.00" departLane="653473569#5_1" departPos="5.10" departSpeed="0.00" departDelay="2.20" arrival="57754.00" arrivalLane="201956811#0_1" arrivalPos="40.40" arrivalSpeed="11.55" duration="87.00" routeLength="313.24" waitingTime="38.00" waitingCount="3" stopTime="0.00" timeLoss="59.83" rerouteNo="1" devices="tripinfo_h20539c1:3 routing_h20539c1:3" vType="default_016" speedFactor="0.88" vaporized=""/>
    <tripinfo id="carIn21160:1" depart="57674.00" departLane="-24693977#1_1" departPos="5.10" departSpeed="0.00" departDelay="0.10" arrival="57755.00" arrivalLane="-266565295#5_1" arrivalPos="172.76" arrivalSpeed="16.75" duration="81.00" routeLength="840.03" waitingTime="11.00" waitingCount="2" stopTime="0.00" timeLoss="30.15" rerouteNo="1" devices="tripinfo_carIn21160:1 routing_carIn21160:1" vType="default_016" speedFactor="1.22" vaporized=""/>
    <tripinfo id="h20403c1:5" depart="57640.00" departLane="27920078#0_1" departPos="5.10" departSpeed="0.00" departDelay="4.60" arrival="57756.00" arrivalLane="201956811#0_1" arrivalPos="40.40" arrivalSpeed="14.77" duration="116.00" routeLength="428.61" waitingTime="59.00" waitingCount="4" stopTime="0.00" timeLoss="87.54" rerouteNo="1" devices="tripinfo_h20403c1:5 routing_h20403c1:5" vType="default_016" speedFactor="1.12" vaporized=""/>
    <tripinfo id="h10915c2:1" depart="57626.00" departLane="315358253#1_1" departPos="5.10" departSpeed="0.00" departDelay="0.20" arrival="57758.00" arrivalLane="-653473569#5_1" arrivalPos="73.05" arrivalSpeed="13.21" duration="132.00" routeLength="970.09" waitingTime="30.00" waitingCount="3" stopTime="0.00" timeLoss="59.45" rerouteNo="1" devices="tripinfo_h10915c2:1 routing_h10915c2:1" vType="default_016" speedFactor="0.99" vaporized=""/>
    <tripinfo id="h3154c1:1" depart="57681.00" departLane="-24693977#1_1" departPos="5.10" departSpeed="0.00" departDelay="0.40" arrival="57761.00" arrivalLane="-266565295#5_1" arrivalPos="172.76" arrivalSpeed="13.04" duration="80.00" routeLength="840.03" waitingTime="0.00" waitingCount="0" stopTime="0.00" timeLoss="17.63" rerouteNo="1" devices="tripinfo_h3154c1:1 routing_h3154c1:1" vType="default_016" speedFactor="1.00" vaporized=""/>
    <tripinfo id="randUni22709:1" depart="57718.00" departLane="315358253#1_1" departPos="5.10" departSpeed="0.00" departDelay="0.20" arrival="57761.00" arrivalLane="32978638#0_1" arrivalPos="49.29" arrivalSpeed="13.20" duration="43.00" routeLength="405.15" waitingTime="1.00" waitingCount="1" stopTime="0.00" timeLoss="11.78" rerouteNo="1" devices="tripinfo_randUni22709:1 routing_randUni22709:1" vType="random_016" speedFactor="1.00" vaporized=""/>
    <tripinfo id="randUni27349:1" depart="57637.00" departLane="27920078#0_1" departPos="5.10" departSpeed="0.00" departDelay="3.10" arrival="57762.00" arrivalLane="201956811#0_1" arrivalPos="40.40" arrivalSpeed="10.69" duration="125.00" routeLength="432.03" waitingTime="57.00" waitingCount="5" stopTime="0.00" timeLoss="84.80" rerouteNo="1" devices="tripinfo_randUni27349:1 routing_randUni27349:1" vType="random_016" speedFactor="0.80" vaporized=""/>