<?xml version="1.0" encoding="UTF-8"?>

<!-- generated on 2025-04-21 21:11:48 by Eclipse SUMO sumo Version 1.22.0
<sumoConfiguration xmlns:xsi="http://www.w3.org/2001/XMLSchema-instance" xsi:noNamespaceSchemaLocation="http://sumo.dlr.de/xsd/sumoConfiguration.xsd">

    <input>
        <net-file value="/home/kalset1/Documents/cmu/robo/16831/project/RESCO/resco_benchmark/environments/ingolstadt7/ingolstadt7.net.xml"/>
        <route-files value="/home/kalset1/Documents/cmu/robo/16831/project/RESCO/resco_benchmark/environments/ingolstadt7/ingolstadt7.rou.xml"/>
    </input>

    <output>
        <tripinfo-output value="/home/kalset1/Documents/cmu/robo/16831/project/RESCO/results/IDQN-tr0-ingolstadt7-7-drq_norm-wait_norm/tripinfo_3.xml"/>
        <tripinfo-output.write-unfinished value="true"/>
    </output>

    <time>
        <begin value="57600"/>
        <end value="61200"/>
    </time>

    <processing>
        <time-to-teleport value="-1"/>
    </processing>

    <report>
        <no-warnings value="True"/>
        <no-step-log value="True"/>
    </report>

    <traci_server>
        <remote-port value="34079"/>
    </traci_server>

    <random_number>
        <random value="true"/>
    </random_number>

</sumoConfiguration>
-->

<tripinfos xmlns:xsi="http://www.w3.org/2001/XMLSchema-instance" xsi:noNamespaceSchemaLocation="http://sumo.dlr.de/xsd/tripinfo_file.xsd">
    <tripinfo id="carIn105842:1" depart="57601.00" departLane="653473569#5_1" departPos="5.10" departSpeed="0.00" departDelay="0.80" arrival="57639.00" arrivalLane="201956811#0_1" arrivalPos="40.40" arrivalSpeed="13.37" duration="38.00" routeLength="313.24" waitingTime="6.00" waitingCount="1" stopTime="0.00" timeLoss="14.47" rerouteNo="1" devices="tripinfo_carIn105842:1 routing_carIn105842:1" vType="default_016" speedFactor="1.01" vaporized=""/>
    <tripinfo id="carIn106322:1" depart="57614.00" departLane="653473569#5_1" departPos="5.10" departSpeed="0.00" departDelay="2.20" arrival="57643.00" arrivalLane="201956811#0_1" arrivalPos="40.40" arrivalSpeed="15.06" duration="29.00" routeLength="313.24" waitingTime="0.00" waitingCount="0" stopTime="0.00" timeLoss="6.96" rerouteNo="1" devices="tripinfo_carIn106322:1 routing_carIn106322:1" vType="default_016" speedFactor="1.13" vaporized=""/>
    <tripinfo id="carIn89578:1" depart="57613.00" departLane="124812856#0_1" departPos="5.10" departSpeed="0.00" departDelay="2.60" arrival="57644.00" arrivalLane="201956810_1" arrivalPos="71.65" arrivalSpeed="10.28" duration="31.00" routeLength="134.91" waitingTime="11.00" waitingCount="1" stopTime="0.00" timeLoss="17.76" rerouteNo="1" devices="tripinfo_carIn89578:1 routing_carIn89578:1" vType="default_016" speedFactor="0.82" vaporized=""/>
    <tripinfo id="h15454c2:3" depart="57612.00" departLane="24608844_1" departPos="5.10" departSpeed="0.00" departDelay="0.50" arrival="57654.00" arrivalLane="32978638#0_1" arrivalPos="49.29" arrivalSpeed="12.39" duration="42.00" routeLength="354.79" waitingTime="0.00" waitingCount="0" stopTime="0.00" timeLoss="4.68" rerouteNo="1" devices="tripinfo_h15454c2:3 routing_h15454c2:3" vType="default_016" speedFactor="0.92" vaporized=""/>
    <tripinfo id="h20232c1:2" depart="57634.00" departLane="-173169611#0_1" departPos="5.10" departSpeed="0.00" departDelay="0.50" arrival="57655.00" arrivalLane="201956820_1" arrivalPos="48.33" arrivalSpeed="13.65" duration="21.00" routeLength="122.35" waitingTime="3.00" waitingCount="1" stopTime="0.00" timeLoss="11.37" rerouteNo="0" devices="tripinfo_h20232c1:2 routing_h20232c1:2" vType="default_016" speedFactor="0.99" vaporized=""/>
    <tripinfo id="carIn28951:1" depart="57606.00" departLane="10425609#0_1" departPos="5.10" departSpeed="0.00" departDelay="0.20" arrival="57664.00" arrivalLane="-653473569#5_1" arrivalPos="73.05" arrivalSpeed="13.80" duration="58.00" routeLength="312.95" waitingTime="21.00" waitingCount="2" stopTime="0.00" timeLoss="34.35" rerouteNo="1" devices="tripinfo_carIn28951:1 routing_carIn28951:1" vType="default_016" speedFactor="1.02" vaporized=""/>
    <tripinfo id="randUni10474:1" depart="57605.00" departLane="124812856#0_1" departPos="5.10" departSpeed="0.00" departDelay="0.20" arrival="57666.00" arrivalLane="-653473569#5_1" arrivalPos="73.05" arrivalSpeed="13.85" duration="61.00" routeLength="450.40" waitingTime="15.00" waitingCount="1" stopTime="0.00" timeLoss="29.24" rerouteNo="1" devices="tripinfo_randUni10474:1 routing_randUni10474:1" vType="random_016" speedFactor="1.05" vaporized=""/>
    <tripinfo id="carIn5482:1" depart="57617.00" departLane="653473569#5_1" departPos="5.10" departSpeed="0.00" departDelay="3.60" arrival="57668.00" arrivalLane="201956811#0_1" arrivalPos="40.40" arrivalSpeed="12.52" duration="51.00" routeLength="313.24" waitingTime="13.00" waitingCount="1" stopTime="0.00" timeLoss="24.30" rerouteNo="1" devices="tripinfo_carIn5482:1 routing_carIn5482:1" vType="default_016" speedFactor="0.91" vaporized=""/>
    <tripinfo id="carIn36103:1" depart="57620.00" departLane="653473569#5_1" departPos="5.10" departSpeed="0.00" departDelay="4.00" arrival="57671.00" arrivalLane="201956811#0_1" arrivalPos="40.40" arrivalSpeed="10.04" duration="51.00" routeLength="313.24" waitingTime="9.00" waitingCount="1" stopTime="0.00" timeLoss="20.71" rerouteNo="1" devices="tripinfo_carIn36103:1 routing_carIn36103:1" vType="default_016" speedFactor="0.80" vaporized=""/>
    <tripinfo id="h645c1:1" depart="57622.00" departLane="266565295#5_1" departPos="5.10" departSpeed="0.00" departDelay="0.40" arrival="57671.00" arrivalLane="-315358253#1_1" arrivalPos="63.90" arrivalSpeed="12.39" duration="49.00" routeLength="547.76" waitingTime="0.00" waitingCount="0" stopTime="0.00" timeLoss="6.20" rerouteNo="1" devices="tripinfo_h645c1:1 routing_h645c1:1" vType="default_016" speedFactor="0.96" vaporized=""/>
    <tripinfo id="carIn102997:1" depart="57623.00" departLane="653473569#5_1" departPos="5.10" departSpeed="0.00" departDelay="4.80" arrival="57672.00" arrivalLane="201956811#0_1" arrivalPos="40.40" arrivalSpeed="12.13" duration="49.00" routeLength="313.24" waitingTime="8.00" waitingCount="1" stopTime="0.00" timeLoss="26.16" rerouteNo="1" devices="tripinfo_carIn102997:1 routing_carIn102997:1" vType="default_016" speedFactor="1.02" vaporized=""/>
    <tripinfo id="carIn107084:1" depart="57601.00" departLane="124812856#0_1" departPos="5.10" departSpeed="0.00" departDelay="0.70" arrival="57675.00" arrivalLane="-653473569#5_1" arrivalPos="73.05" arrivalSpeed="13.17" duration="74.00" routeLength="450.40" waitingTime="21.00" waitingCount="3" stopTime="0.00" timeLoss="41.00" rerouteNo="1" devices="tripinfo_carIn107084:1 routing_carIn107084:1" vType="default_016" speedFactor="1.02" vaporized=""/>
    <tripinfo id="carIn79400:1" depart="57604.00" departLane="-24693977#1_1" departPos="5.10" departSpeed="0.00" departDelay="0.10" arrival="57675.00" arrivalLane="-266565295#5_1" arrivalPos="172.76" arrivalSpeed="13.83" duration="71.00" routeLength="840.03" waitingTime="0.00" waitingCount="0" stopTime="0.00" timeLoss="11.84" rerouteNo="1" devices="tripinfo_carIn79400:1 routing_carIn79400:1" vType="default_016" speedFactor="1.05" vaporized=""/>
    <tripinfo id="carIn75554:1" depart="57626.00" departLane="653473569#5_1" departPos="5.10" departSpeed="0.00" departDelay="5.20" arrival="57675.00" arrivalLane="201956811#0_1" arrivalPos="40.40" arrivalSpeed="15.21" duration="49.00" routeLength="313.24" waitingTime="8.00" waitingCount="2" stopTime="0.00" timeLoss="28.04" rerouteNo="1" devices="tripinfo_carIn75554:1 routing_carIn75554:1" vType="default_016" speedFactor="1.15" vaporized=""/>
    <tripinfo id="carIn925:1" depart="57649.00" departLane="124812856#0_1" departPos="5.10" departSpeed="0.00" departDelay="22.90" arrival="57677.00" arrivalLane="201956810_1" arrivalPos="71.65" arrivalSpeed="12.19" duration="28.00" routeLength="134.91" waitingTime="8.00" waitingCount="1" stopTime="0.00" timeLoss="16.55" rerouteNo="1" devices="tripinfo_carIn925:1 routing_carIn925:1" vType="default_016" speedFactor="0.92" vaporized=""/>
    <tripinfo id="carIn81046:1" depart="57610.00" departLane="124812856#0_1" departPos="5.10" departSpeed="0.00" departDelay="1.50" arrival="57678.00" arrivalLane="-653473569#5_1" arrivalPos="73.05" arrivalSpeed="10.89" duration="68.00" routeLength="450.40" waitingTime="15.00" waitingCount="2" stopTime="0.00" timeLoss="28.64" rerouteNo="1" devices="tripinfo_carIn81046:1 routing_carIn81046:1" vType="default_016" speedFactor="0.84" vaporized=""/>
    <tripinfo id="h21130c2:1" depart="57630.00" departLane="10425609#0_1" departPos="5.10" departSpeed="0.00" departDelay="0.10" arrival="57678.00" arrivalLane="202070434#2_1" arrivalPos="39.03" arrivalSpeed="13.23" duration="48.00" routeLength="432.30" waitingTime="0.00" waitingCount="0" stopTime="0.00" timeLoss="15.33" rerouteNo="1" devices="tripinfo_h21130c2:1 routing_h21130c2:1" vType="default_016" speedFactor="0.97" vaporized=""/>
    <tripinfo id="carIn96537:1" depart="57614.00" departLane="124812856#0_1" departPos="5.10" departSpeed="0.00" departDelay="2.80" arrival="57679.00" arrivalLane="202070434#2_2" arrivalPos="39.03" arrivalSpeed="13.33" duration="65.00" routeLength="569.75" waitingTime="9.00" waitingCount="1" stopTime="0.00" timeLoss="23.50" rerouteNo="1" devices="tripinfo_carIn96537:1 routing_carIn96537:1" vType="default_016" speedFactor="1.00" vaporized=""/>
    <tripinfo id="carIn28488:1" depart="57611.00" departLane="653473569#5_1" departPos="5.10" departSpeed="0.00" departDelay="0.80" arrival="57680.00" arrivalLane="201956820_1" arrivalPos="48.33" arrivalSpeed="14.20" duration="69.00" routeLength="437.07" waitingTime="19.00" waitingCount="2" stopTime="0.00" timeLoss="38.30" rerouteNo="1" devices="tripinfo_carIn28488:1 routing_carIn28488:1" vType="default_016" speedFactor="1.07" vaporized=""/>
    <tripinfo id="carIn52610:1" depart="57615.00" departLane="-24693977#1_1" departPos="5.10" departSpeed="0.00" departDelay="0.10" arrival="57683.00" arrivalLane="-266565295#5_2" arrivalPos="172.76" arrivalSpeed="14.24" duration="68.00" routeLength="840.03" waitingTime="0.00" waitingCount="0" stopTime="0.00" timeLoss="8.20" rerouteNo="1" devices="tripinfo_carIn52610:1 routing_carIn52610:1" vType="default_016" speedFactor="1.04" vaporized=""/>
    <tripinfo id="carIn113711:1" depart="57601.00" departLane="-24693977#1_1" departPos="5.10" departSpeed="0.00" departDelay="0.70" arrival="57684.00" arrivalLane="-266565295#5_1" arrivalPos="172.76" arrivalSpeed="10.55" duration="83.00" routeLength="840.03" waitingTime="0.00" waitingCount="0" stopTime="0.00" timeLoss="7.76" rerouteNo="1" devices="tripinfo_carIn113711:1 routing_carIn113711:1" vType="default_016" speedFactor="0.83" vaporized=""/>
    <tripinfo id="carIn115641:1" depart="57614.00" departLane="-24693977#1_1" departPos="5.10" departSpeed="0.00" departDelay="0.90" arrival="57685.00" arrivalLane="-266565295#5_1" arrivalPos="172.76" arrivalSpeed="13.04" duration="71.00" routeLength="840.03" waitingTime="0.00" waitingCount="0" stopTime="0.00" timeLoss="7.13" rerouteNo="1" devices="tripinfo_carIn115641:1 routing_carIn115641:1" vType="default_016" speedFactor="0.96" vaporized=""/>
    <tripinfo id="carIn26410:1" depart="57620.00" departLane="124812856#0_1" departPos="5.10" departSpeed="0.00" departDelay="6.50" arrival="57685.00" arrivalLane="202070434#2_1" arrivalPos="39.03" arrivalSpeed="14.94" duration="65.00" routeLength="569.75" waitingTime="8.00" waitingCount="2" stopTime="0.00" timeLoss="26.87" rerouteNo="1" devices="tripinfo_carIn26410:1 routing_carIn26410:1" vType="default_016" speedFactor="1.09" vaporized=""/>
    <tripinfo id="carIn25202:1" depart="57629.00" departLane="315358253#1_1" departPos="5.10" departSpeed="0.00" departDelay="1.50" arrival="57686.00" arrivalLane="32978638#0_1" arrivalPos="49.29" arrivalSpeed="13.23" duration="57.00" routeLength="405.15" waitingTime="16.00" waitingCount="1" stopTime="0.00" timeLoss="27.07" rerouteNo="1" devices="tripinfo_carIn25202:1 routing_carIn25202:1" vType="default_016" speedFactor="1.04" vaporized=""/>
    <tripinfo id="carIn51024:1" depart="57626.00" departLane="124812856#0_1" departPos="5.10" departSpeed="0.00" departDelay="9.90" arrival="57687.00" arrivalLane="202070434#2_1" arrivalPos="39.03" arrivalSpeed="12.93" duration="61.00" routeLength="569.75" waitingTime="3.00" waitingCount="2" stopTime="0.00" timeLoss="19.65" rerouteNo="1" devices="tripinfo_carIn51024:1 routing_carIn51024:1" vType="default_016" speedFactor="1.00" vaporized=""/>
    <tripinfo id="carIn33538:1" depart="57671.00" departLane="37386279_1" departPos="5.10" departSpeed="0.00" departDelay="0.30" arrival="57689.00" arrivalLane="-24634414#4_1" arrivalPos="22.88" arrivalSpeed="5.38" duration="18.00" routeLength="125.23" waitingTime="0.00" waitingCount="0" stopTime="0.00" timeLoss="3.38" rerouteNo="0" devices="tripinfo_carIn33538:1 routing_carIn33538:1" vType="default_016" speedFactor="0.76" vaporized=""/>
    <tripinfo id="carIn131078:1" depart="57671.00" departLane="124812856#0_1" departPos="5.10" departSpeed="0.00" departDelay="35.60" arrival="57690.00" arrivalLane="201956810_1" arrivalPos="71.65" arrivalSpeed="14.08" duration="19.00" routeLength="134.91" waitingTime="0.00" waitingCount="0" stopTime="0.00" timeLoss="8.32" rerouteNo="1" devices="tripinfo_carIn131078:1 routing_carIn131078:1" vType="default_016" speedFactor="1.01" vaporized=""/>
    <tripinfo id="randUni20090:1" depart="57629.00" departLane="653473569#5_1" departPos="5.10" departSpeed="0.00" departDelay="1.00" arrival="57691.00" arrivalLane="201956811#0_1" arrivalPos="40.40" arrivalSpeed="13.03" duration="62.00" routeLength="313.24" waitingTime="20.00" waitingCount="2" stopTime="0.00" timeLoss="37.36" rerouteNo="1" devices="tripinfo_randUni20090:1 routing_randUni20090:1" vType="random_016" speedFactor="0.97" vaporized=""/>
    <tripinfo id="carIn77943:1" depart="57607.00" departLane="124812856#0_1" departPos="5.10" departSpeed="0.00" departDelay="1.50" arrival="57692.00" arrivalLane="-653473569#5_1" arrivalPos="73.05" arrivalSpeed="14.49" duration="85.00" routeLength="450.40" waitingTime="17.00" waitingCount="3" stopTime="0.00" timeLoss="52.93" rerouteNo="1" devices="tripinfo_carIn77943:1 routing_carIn77943:1" vType="default_016" speedFactor="1.05" vaporized=""/>
    <tripinfo id="carIn10158:1" depart="57622.00" departLane="-24693977#1_1" departPos="5.10" departSpeed="0.00" departDelay="0.80" arrival="57693.00" arrivalLane="-266565295#5_1" arrivalPos="172.76" arrivalSpeed="12.96" duration="71.00" routeLength="840.03" waitingTime="0.00" waitingCount="0" stopTime="0.00" timeLoss="7.06" rerouteNo="1" devices="tripinfo_carIn10158:1 routing_carIn10158:1" vType="default_016" speedFactor="0.96" vaporized=""/>
    <tripinfo id="carIn37268:1" depart="57636.00" departLane="653473569#5_1" departPos="5.10" departSpeed="0.00" departDelay="0.90" arrival="57693.00" arrivalLane="201956811#0_1" arrivalPos="40.40" arrivalSpeed="13.36" duration="57.00" routeLength="313.24" waitingTime="16.00" waitingCount="2" stopTime="0.00" timeLoss="32.63" rerouteNo="1" devices="tripinfo_carIn37268:1 routing_carIn37268:1" vType="default_016" speedFactor="1.00" vaporized=""/>
    <tripinfo id="carIn77438:1" depart="57617.00" departLane="124812856#0_1" departPos="5.10" departSpeed="0.00" departDelay="4.10" arrival="57694.00" arrivalLane="-653473569#5_1" arrivalPos="73.05" arrivalSpeed="14.36" duration="77.00" routeLength="450.40" waitingTime="13.00" waitingCount="4" stopTime="0.00" timeLoss="46.34" rerouteNo="1" devices="tripinfo_carIn77438:1 routing_carIn77438:1" vType="default_016" speedFactor="1.10" vaporized=""/>
    <tripinfo id="carIn124416:1" depart="57663.00" departLane="-173169611#0_1" departPos="5.10" departSpeed="0.00" departDelay="0.50" arrival="57696.00" arrivalLane="201956820_1" arrivalPos="48.33" arrivalSpeed="12.92" duration="33.00" routeLength="122.35" waitingTime="13.00" waitingCount="1" stopTime="0.00" timeLoss="23.07" rerouteNo="0" devices="tripinfo_carIn124416:1 routing_carIn124416:1" vType="default_016" speedFactor="0.98" vaporized=""/>
    <tripinfo id="carIn55461:1" depart="57652.00" departLane="10425609#0_1" departPos="5.10" departSpeed="0.00" departDelay="0.30" arrival="57699.00" arrivalLane="201956810_1" arrivalPos="71.65" arrivalSpeed="10.40" duration="47.00" routeLength="255.78" waitingTime="10.00" waitingCount="2" stopTime="0.00" timeLoss="22.75" rerouteNo="1" devices="tripinfo_carIn55461:1 routing_carIn55461:1" vType="default_016" speedFactor="0.83" vaporized=""/>
    <tripinfo id="carIn114137:1" depart="57634.00" departLane="27920078#0_1" departPos="5.10" departSpeed="0.00" departDelay="3.10" arrival="57704.00" arrivalLane="-83304175#2_1" arrivalPos="189.34" arrivalSpeed="7.94" duration="70.00" routeLength="501.51" waitingTime="7.00" waitingCount="1" stopTime="0.00" timeLoss="21.21" rerouteNo="1" devices="tripinfo_carIn114137:1 routing_carIn114137:1" vType="default_016" speedFactor="0.98" vaporized=""/>
    <tripinfo id="carIn12900:1" depart="57689.00" departLane="124812856#0_1" departPos="5.10" departSpeed="0.00" departDelay="40.80" arrival="57707.00" arrivalLane="201956810_1" arrivalPos="71.65" arrivalSpeed="15.95" duration="18.00" routeLength="134.91" waitingTime="0.00" waitingCount="0" stopTime="0.00" timeLoss="8.66" rerouteNo="1" devices="tripinfo_carIn12900:1 routing_carIn12900:1" vType="default_016" speedFactor="1.20" vaporized=""/>
    <tripinfo id="h19804c1:3" depart="57623.00" departLane="124812856#0_1" departPos="5.10" departSpeed="0.00" departDelay="7.50" arrival="57712.00" arrivalLane="-653473569#5_1" arrivalPos="73.05" arrivalSpeed="13.19" duration="89.00" routeLength="450.40" waitingTime="17.00" waitingCount="4" stopTime="0.00" timeLoss="56.22" rerouteNo="1" devices="tripinfo_h19804c1:3 routing_h19804c1:3" vType="default_016" speedFactor="1.01" vaporized=""/>
    <tripinfo id="carIn22637:1" depart="57635.00" departLane="27920078#0_1" departPos="5.10" departSpeed="0.00" departDelay="2.50" arrival="57714.00" arrivalLane="-83304175#2_1" arrivalPos="189.34" arrivalSpeed="6.31" duration="79.00" routeLength="501.51" waitingTime="8.00" waitingCount="2" stopTime="0.00" timeLoss="22.09" rerouteNo="1" devices="tripinfo_carIn22637:1 routing_carIn22637:1" vType="default_016" speedFactor="0.84" vaporized=""/>
    <tripinfo id="carIn767:1" depart="57632.00" departLane="124812856#0_1" departPos="5.10" departSpeed="0.00" departDelay="13.50" arrival="57716.00" arrivalLane="-653473569#5_1" arrivalPos="73.05" arrivalSpeed="11.34" duration="84.00" routeLength="450.40" waitingTime="12.00" waitingCount="2" stopTime="0.00" timeLoss="44.45" rerouteNo="1" devices="tripinfo_carIn767:1 routing_carIn767:1" vType="default_016" speedFactor="0.85" vaporized=""/>
    <tripinfo id="carIn55090:1" depart="57666.00" departLane="-173169611#0_1" departPos="5.10" departSpeed="0.00" departDelay="1.40" arrival="57717.00" arrivalLane="201956820_1" arrivalPos="48.33" arrivalSpeed="12.02" duration="51.00" routeLength="122.35" waitingTime="28.00" waitingCount="2" stopTime="0.00" timeLoss="39.94" rerouteNo="0" devices="tripinfo_carIn55090:1 routing_carIn55090:1" vType="default_016" speedFactor="0.93" vaporized=""/>
    <tripinfo id="carIn128705:1" depart="57629.00" departLane="124812856#0_1" departPos="5.10" departSpeed="0.00" departDelay="10.60" arrival="57718.00" arrivalLane="202070434#2_1" arrivalPos="39.03" arrivalSpeed="14.45" duration="89.00" routeLength="569.75" waitingTime="22.00" waitingCount="3" stopTime="0.00" timeLoss="51.75" rerouteNo="1" devices="tripinfo_carIn128705:1 routing_carIn128705:1" vType="default_016" speedFactor="1.12" vaporized=""/>
    <tripinfo id="h21989c1:1" depart="57634.00" departLane="124812856#0_1" departPos="5.10" departSpeed="0.00" departDelay="13.60" arrival="57718.00" arrivalLane="202070434#2_2" arrivalPos="39.03" arrivalSpeed="14.39" duration="84.00" routeLength="569.75" waitingTime="17.00" waitingCount="2" stopTime="0.00" timeLoss="51.27" rerouteNo="1" devices="tripinfo_h21989c1:1 routing_h21989c1:1" vType="default_016" speedFactor="1.26" vaporized=""/>
    <tripinfo id="h3688c1:1" depart="57679.00" departLane="315358253#1_1" departPos="5.10" departSpeed="0.00" departDelay="0.50" arrival="57718.00" arrivalLane="32978638#0_1" arrivalPos="49.29" arrivalSpeed="12.88" duration="39.00" routeLength="405.15" waitingTime="0.00" waitingCount="0" stopTime="0.00" timeLoss="7.17" rerouteNo="1" devices="tripinfo_h3688c1:1 routing_h3688c1:1" vType="default_016" speedFactor="0.97" vaporized=""/>
    <tripinfo id="carIn20106:1" depart="57630.00" departLane="27920078#0_1" departPos="5.10" departSpeed="0.00" departDelay="2.70" arrival="57720.00" arrivalLane="201956820_2" arrivalPos="48.33" arrivalSpeed="12.92" duration="90.00" routeLength="552.44" waitingTime="28.00" waitingCount="3" stopTime="0.00" timeLoss="48.24" rerouteNo="1" devices="tripinfo_carIn20106:1 routing_carIn20106:1" vType="default_016" speedFactor="0.96" vaporized=""/>
    <tripinfo id="carIn13117:1" depart="57627.00" departLane="27920078#0_1" departPos="5.10" departSpeed="0.00" departDelay="1.80" arrival="57721.00" arrivalLane="201956820_1" arrivalPos="48.33" arrivalSpeed="13.08" duration="94.00" routeLength="552.44" waitingTime="27.00" waitingCount="2" stopTime="0.00" timeLoss="51.44" rerouteNo="1" devices="tripinfo_carIn13117:1 routing_carIn13117:1" vType="default_016" speedFactor="0.96" vaporized=""/>
    <tripinfo id="60.39" depart="57643.00" departLane="10425609#0_1" departPos="12.10" departSpeed="0.00" departDelay="0.50" arrival="57723.00" arrivalLane="202070434#2_1" arrivalPos="39.03" arrivalSpeed="13.87" duration="80.00" routeLength="425.30" waitingTime="18.00" waitingCount="2" stopTime="0.00" timeLoss="48.38" rerouteNo="1" devices="tripinfo_60.39 routing_60.39" vType="bus" speedFactor="1.00" vaporized=""/>
    <tripinfo id="carIn129760:1" depart="57661.00" departLane="653473569#5_1" departPos="5.10" departSpeed="0.00" departDelay="0.80" arrival="57728.00" arrivalLane="201956811#0_1" arrivalPos="40.40" arrivalSpeed="14.26" duration="67.00" routeLength="313.24" waitingTime="27.00" waitingCount="3" stopTime="0.00" timeLoss="46.06" rerouteNo="1" devices="tripinfo_carIn129760:1 routing_carIn129760:1" vType="default_016" speedFactor="1.12" vaporized=""/>
    <tripinfo id="h5292c2:1" depart="57656.00" departLane="-24693977#1_1" departPos="5.10" departSpeed="0.00" departDelay="0.00" arrival="57730.00" arrivalLane="-266565295#5_1" arrivalPos="172.76" arrivalSpeed="13.83" duration="74.00" routeLength="840.03" waitingTime="4.00" waitingCount="1" stopTime="0.00" timeLoss="13.50" rerouteNo="1" devices="tripinfo_h5292c2:1 routing_h5292c2:1" vType="default_016" speedFactor="1.02" vaporized=""/>
    <tripinfo id="carIn107842:1" depart="57637.00" departLane="124812856#0_1" departPos="5.10" departSpeed="0.00" departDelay="15.90" arrival="57731.00" arrivalLane="-653473569#5_1" arrivalPos="73.05" arrivalSpeed="13.86" duration="94.00" routeLength="450.40" waitingTime="22.00" waitingCount="3" stopTime="0.00" timeLoss="61.10" rerouteNo="1" devices="tripinfo_carIn107842:1 routing_carIn107842:1" vType="default_016" speedFactor="1.02" vaporized=""/>
    <tripinfo id="carIn129626:1" depart="57664.00" departLane="653473569#5_1" departPos="5.10" departSpeed="0.00" departDelay="1.60" arrival="57731.00" arrivalLane="201956811#0_1" arrivalPos="40.40" arrivalSpeed="14.27" duration="67.00" routeLength="313.24" waitingTime="25.00" waitingCount="2" stopTime="0.00" timeLoss="44.95" rerouteNo="1" devices="tripinfo_carIn129626:1 routing_carIn129626:1" vType="default_016" speedFactor="1.09" vaporized=""/>
    <tripinfo id="h15382c1:3" depart="57638.00" departLane="124812856#0_1" departPos="5.10" departSpeed="0.00" departDelay="15.80" arrival="57733.00" arrivalLane="-653473569#5_1" arrivalPos="73.05" arrivalSpeed="13.69" duration="95.00" routeLength="450.40" waitingTime="20.00" waitingCount="3" stopTime="0.00" timeLoss="61.90" rerouteNo="1" devices="tripinfo_h15382c1:3 routing_h15382c1:3" vType="default_016" speedFactor="1.02" vaporized=""/>
    <tripinfo id="carIn100220:1" depart="57679.00" departLane="124812856#0_1" departPos="5.10" departSpeed="0.00" departDelay="40.00" arrival="57735.00" arrivalLane="202070434#2_1" arrivalPos="39.03" arrivalSpeed="14.84" duration="56.00" routeLength="569.75" waitingTime="3.00" waitingCount="1" stopTime="0.00" timeLoss="19.02" rerouteNo="1" devices="tripinfo_carIn100220:1 routing_carIn100220:1" vType="default_016" speedFactor="1.13" vaporized=""/>
    <tripinfo id="h3568c1:3" depart="57656.00" departLane="266565295#5_1" departPos="5.10" departSpeed="0.00" departDelay="0.80" arrival="57735.00" arrivalLane="-24634415_1" arrivalPos="64.03" arrivalSpeed="12.55" duration="79.00" routeLength="810.20" waitingTime="0.00" waitingCount="0" stopTime="0.00" timeLoss="11.87" rerouteNo="1" devices="tripinfo_h3568c1:3 routing_h3568c1:3" vType="default_016" speedFactor="0.97" vaporized=""/>
    <tripinfo id="carIn106665:1" depart="57658.00" departLane="266565295#5_1" departPos="5.10" departSpeed="0.00" departDelay="0.80" arrival="57735.00" arrivalLane="24693977#1_1" arrivalPos="96.83" arrivalSpeed="12.59" duration="77.00" routeLength="834.40" waitingTime="0.00" waitingCount="0" stopTime="0.00" timeLoss="9.62" rerouteNo="1" devices="tripinfo_carIn106665:1 routing_carIn106665:1" vType="default_016" speedFactor="0.91" vaporized=""/>
    <tripinfo id="60R.41" depart="57623.00" departLane="27920078#0_1" departPos="12.10" departSpeed="0.00" departDelay="0.30" arrival="57736.00" arrivalLane="201956811#0_1" arrivalPos="40.40" arrivalSpeed="11.94" duration="113.00" routeLength="425.03" waitingTime="51.00" waitingCount="3" stopTime="0.00" timeLoss="81.57" rerouteNo="1" devices="tripinfo_60R.41 routing_60R.41" vType="bus" speedFactor="1.00" vaporized=""/>
    <tripinfo id="h20540c1:1" depart="57634.00" departLane="10425609#0_1" departPos="5.10" departSpeed="0.00" departDelay="0.50" arrival="57736.00" arrivalLane="-653473569#5_1" arrivalPos="73.05" arrivalSpeed="12.10" duration="102.00" routeLength="312.95" waitingTime="44.00" waitingCount="4" stopTime="0.00" timeLoss="75.43" rerouteNo="1" devices="tripinfo_h20540c1:1 routing_h20540c1:1" vType="default_016" speedFactor="0.92" vaporized=""/>
    <tripinfo id="carIn12152:1" depart="57647.00" departLane="24599188#0.94_1" departPos="5.10" departSpeed="0.00" departDelay="0.50" arrival="57736.00" arrivalLane="24693977#1_1" arrivalPos="96.83" arrivalSpeed="14.08" duration="89.00" routeLength="511.77" waitingTime="26.00" waitingCount="2" stopTime="0.00" timeLoss="44.32" rerouteNo="1" devices="tripinfo_carIn12152:1 routing_carIn12152:1" vType="default_016" speedFactor="1.07" vaporized=""/>
    <tripinfo id="carIn12775:1" depart="57676.00" departLane="10425609#0_1" departPos="5.10" departSpeed="0.00" departDelay="0.60" arrival="57737.00" arrivalLane="-653473569#5_1" arrivalPos="73.05" arrivalSpeed="14.37" duration="61.00" routeLength="312.95" waitingTime="13.00" waitingCount="3" stopTime="0.00" timeLoss="40.41" rerouteNo="1" devices="tripinfo_carIn12775:1 routing_carIn12775:1" vType="default_016" speedFactor="1.16" vaporized=""/>
    <tripinfo id="h20539c1:3" depart="57667.00" departLane="653473569#5_1" departPos="5.10" departSpeed="0.00" departDelay="2.20" arrival="57741.00" arrivalLane="201956811#0_1" arrivalPos="40.40" arrivalSpeed="13.94" duration="74.00" routeLength="313.24" waitingTime="23.00" waitingCount="2" stopTime="0.00" timeLoss="51.22" rerouteNo="1" devices="tripinfo_h20539c1:3 routing_h20539c1:3" vType="default_016" speedFactor="1.05" vaporized=""/>
    <tripinfo id="h317c2:1" depart="57707.00" departLane="-32978638#0_1" departPos="5.10" departSpeed="0.00" departDelay="0.10" arrival="57742.00" arrivalLane="-266565295#5_1" arrivalPos="172.76" arrivalSpeed="12.87" duration="35.00" routeLength="370.53" waitingTime="0.00" waitingCount="0" stopTime="0.00" timeLoss="5.54" rerouteNo="1" devices="tripinfo_h317c2:1 routing_h317c2:1" vType="default_016" speedFactor="0.95" vaporized=""/>
    <tripinfo id="randUni27349:1" depart="57637.00" departLane="27920078#0_1" departPos="5.10" departSpeed="0.00" departDelay="3.10" arrival="57743.00" arrivalLane="201956811#0_1" arrivalPos="40.40" arrivalSpeed="12.32" duration="106.00" routeLength="432.03" waitingTime="37.00" waitingCount="3" stopTime="0.00" timeLoss="71.71" rerouteNo="1" devices="tripinfo_randUni27349:1 routing_randUni27349:1" vType="random_016" speedFactor="0.92" vaporized=""/>
    <tripinfo id="h20403c1:5" depart="57640.00" departLane="27920078#0_1" departPos="5.10" departSpeed="0.00" departDelay="4.60" arrival="57751.00" arrivalLane="201956811#0_1" arrivalPos="40.40" arrivalSpeed="13.14" duration="111.00" routeLength="432.03" waitingTime="38.00" waitingCount="5" stopTime="0.00" timeLoss="77.44" rerouteNo="1" devices="tripinfo_h20403c1:5 routing_h20403c1:5" vType="default_016" speedFactor="0.95" vaporized=""/>
    <tripinfo id="carIn26407:1" depart="57673.00" departLane="25145012#7_1" departPos="5.10" departSpeed="0.00" departDelay="0.50" arrival="57753.00" arrivalLane="201956811#0_1" arrivalPos="40.40" arrivalSpeed="13.53" duration="80.00" routeLength="384.54" waitingTime="21.00" waitingCount="3" stopTime="0.00" timeLoss="51.67" rerouteNo="1" devices="tripinfo_carIn26407:1 routing_carIn26407:1" vType="default_016" speedFactor="1.03" vaporized=""/>
    <tripinfo id="carIn3969:1" depart="57641.00" departLane="124812856#0_1" departPos="5.10" departSpeed="0.00" departDelay="17.30" arrival="57756.00" arrivalLane="-653473569#5_1" arrivalPos="73.05" arrivalSpeed="10.88" duration="115.00" routeLength="450.40" waitingTime="41.00" waitingCount="4" stopTime="0.00" timeLoss="76.07" rerouteNo="1" devices="tripinfo_carIn3969:1 routing_carIn3969:1" vType="default_016" speedFactor="0.85" vaporized=""/>