<?xml version="1.0" encoding="UTF-8"?>

<!-- generated on 2025-04-21 21:17:00 by Eclipse SUMO sumo Version 1.22.0
<sumoConfiguration xmlns:xsi="http://www.w3.org/2001/XMLSchema-instance" xsi:noNamespaceSchemaLocation="http://sumo.dlr.de/xsd/sumoConfiguration.xsd">

    <input>
        <net-file value="/home/kalset1/Documents/cmu/robo/16831/project/RESCO/resco_benchmark/environments/ingolstadt7/ingolstadt7.net.xml"/>
        <route-files value="/home/kalset1/Documents/cmu/robo/16831/project/RESCO/resco_benchmark/environments/ingolstadt7/ingolstadt7.rou.xml"/>
    </input>

    <output>
        <tripinfo-output value="/home/kalset1/Documents/cmu/robo/16831/project/RESCO/results/IDQN-tr0-ingolstadt7-7-drq_norm-wait_norm/tripinfo_25.xml"/>
        <tripinfo-output.write-unfinished value="true"/>
    </output>

    <time>
        <begin value="57600"/>
        <end value="61200"/>
    </time>

    <processing>
        <time-to-teleport value="-1"/>
    </processing>

    <report>
        <no-warnings value="True"/>
        <no-step-log value="True"/>
    </report>

    <traci_server>
        <remote-port value="32911"/>
    </traci_server>

    <random_number>
        <random value="true"/>
    </random_number>

</sumoConfiguration>
-->

<tripinfos xmlns:xsi="http://www.w3.org/2001/XMLSchema-instance" xsi:noNamespaceSchemaLocation="http://sumo.dlr.de/xsd/tripinfo_file.xsd">
    <tripinfo id="carIn105842:1" depart="57601.00" departLane="653473569#5_1" departPos="5.10" departSpeed="0.00" departDelay="0.80" arrival="57641.00" arrivalLane="201956811#0_1" arrivalPos="40.40" arrivalSpeed="14.42" duration="40.00" routeLength="313.24" waitingTime="5.00" waitingCount="1" stopTime="0.00" timeLoss="16.98" rerouteNo="1" devices="tripinfo_carIn105842:1 routing_carIn105842:1" vType="default_016" speedFactor="1.05" vaporized=""/>
    <tripinfo id="carIn89578:1" depart="57614.00" departLane="124812856#0_1" departPos="5.10" departSpeed="0.00" departDelay="3.60" arrival="57643.00" arrivalLane="201956810_1" arrivalPos="71.65" arrivalSpeed="12.09" duration="29.00" routeLength="134.91" waitingTime="9.00" waitingCount="1" stopTime="0.00" timeLoss="17.92" rerouteNo="1" devices="tripinfo_carIn89578:1 routing_carIn89578:1" vType="default_016" speedFactor="0.96" vaporized=""/>
    <tripinfo id="carIn107084:1" depart="57601.00" departLane="124812856#0_1" departPos="5.10" departSpeed="0.00" departDelay="0.70" arrival="57644.00" arrivalLane="-653473569#5_1" arrivalPos="73.05" arrivalSpeed="17.53" duration="43.00" routeLength="450.40" waitingTime="5.00" waitingCount="1" stopTime="0.00" timeLoss="16.44" rerouteNo="1" devices="tripinfo_carIn107084:1 routing_carIn107084:1" vType="default_016" speedFactor="1.28" vaporized=""/>
    <tripinfo id="carIn28951:1" depart="57606.00" departLane="10425609#0_1" departPos="5.10" departSpeed="0.00" departDelay="0.20" arrival="57649.00" arrivalLane="-653473569#5_1" arrivalPos="73.05" arrivalSpeed="13.12" duration="43.00" routeLength="312.95" waitingTime="7.00" waitingCount="1" stopTime="0.00" timeLoss="18.51" rerouteNo="1" devices="tripinfo_carIn28951:1 routing_carIn28951:1" vType="default_016" speedFactor="1.01" vaporized=""/>
    <tripinfo id="h15454c2:3" depart="57612.00" departLane="24608844_1" departPos="5.10" departSpeed="0.00" departDelay="0.50" arrival="57652.00" arrivalLane="32978638#0_1" arrivalPos="49.29" arrivalSpeed="14.88" duration="40.00" routeLength="354.79" waitingTime="0.00" waitingCount="0" stopTime="0.00" timeLoss="8.10" rerouteNo="1" devices="tripinfo_h15454c2:3 routing_h15454c2:3" vType="default_016" speedFactor="1.08" vaporized=""/>
    <tripinfo id="h20232c1:2" depart="57634.00" departLane="-173169611#0_1" departPos="5.10" departSpeed="0.00" departDelay="0.50" arrival="57656.00" arrivalLane="201956820_1" arrivalPos="48.33" arrivalSpeed="13.51" duration="22.00" routeLength="122.35" waitingTime="4.00" waitingCount="1" stopTime="0.00" timeLoss="12.25" rerouteNo="0" devices="tripinfo_h20232c1:2 routing_h20232c1:2" vType="default_016" speedFactor="1.00" vaporized=""/>
    <tripinfo id="carIn106322:1" depart="57614.00" departLane="653473569#5_1" departPos="5.10" departSpeed="0.00" departDelay="2.20" arrival="57659.00" arrivalLane="201956811#0_1" arrivalPos="40.40" arrivalSpeed="13.10" duration="45.00" routeLength="313.24" waitingTime="6.00" waitingCount="2" stopTime="0.00" timeLoss="19.86" rerouteNo="1" devices="tripinfo_carIn106322:1 routing_carIn106322:1" vType="default_016" speedFactor="0.98" vaporized=""/>
    <tripinfo id="carIn5482:1" depart="57617.00" departLane="653473569#5_1" departPos="5.10" departSpeed="0.00" departDelay="3.60" arrival="57660.00" arrivalLane="201956811#0_1" arrivalPos="40.40" arrivalSpeed="14.92" duration="43.00" routeLength="313.24" waitingTime="4.00" waitingCount="2" stopTime="0.00" timeLoss="21.33" rerouteNo="1" devices="tripinfo_carIn5482:1 routing_carIn5482:1" vType="default_016" speedFactor="1.08" vaporized=""/>
    <tripinfo id="carIn28488:1" depart="57611.00" departLane="653473569#5_1" departPos="5.10" departSpeed="0.00" departDelay="0.80" arrival="57661.00" arrivalLane="201956820_1" arrivalPos="48.33" arrivalSpeed="13.03" duration="50.00" routeLength="437.07" waitingTime="5.00" waitingCount="1" stopTime="0.00" timeLoss="15.78" rerouteNo="1" devices="tripinfo_carIn28488:1 routing_carIn28488:1" vType="default_016" speedFactor="0.95" vaporized=""/>
    <tripinfo id="carIn36103:1" depart="57620.00" departLane="653473569#5_1" departPos="5.10" departSpeed="0.00" departDelay="4.00" arrival="57663.00" arrivalLane="201956811#0_1" arrivalPos="40.40" arrivalSpeed="12.02" duration="43.00" routeLength="313.24" waitingTime="2.00" waitingCount="1" stopTime="0.00" timeLoss="17.95" rerouteNo="1" devices="tripinfo_carIn36103:1 routing_carIn36103:1" vType="default_016" speedFactor="0.95" vaporized=""/>
    <tripinfo id="carIn25202:1" depart="57629.00" departLane="315358253#1_1" departPos="5.10" departSpeed="0.00" departDelay="1.50" arrival="57665.00" arrivalLane="32978638#0_1" arrivalPos="49.29" arrivalSpeed="13.72" duration="36.00" routeLength="405.15" waitingTime="0.00" waitingCount="0" stopTime="0.00" timeLoss="6.59" rerouteNo="1" devices="tripinfo_carIn25202:1 routing_carIn25202:1" vType="default_016" speedFactor="1.04" vaporized=""/>
    <tripinfo id="carIn925:1" depart="57650.00" departLane="124812856#0_1" departPos="5.10" departSpeed="0.00" departDelay="23.90" arrival="57666.00" arrivalLane="201956810_1" arrivalPos="71.65" arrivalSpeed="13.55" duration="16.00" routeLength="134.91" waitingTime="0.00" waitingCount="0" stopTime="0.00" timeLoss="5.31" rerouteNo="1" devices="tripinfo_carIn925:1 routing_carIn925:1" vType="default_016" speedFactor="1.05" vaporized=""/>
    <tripinfo id="h645c1:1" depart="57622.00" departLane="266565295#5_1" departPos="5.10" departSpeed="0.00" departDelay="0.40" arrival="57672.00" arrivalLane="-315358253#1_1" arrivalPos="63.90" arrivalSpeed="12.85" duration="50.00" routeLength="547.76" waitingTime="0.00" waitingCount="0" stopTime="0.00" timeLoss="7.23" rerouteNo="1" devices="tripinfo_h645c1:1 routing_h645c1:1" vType="default_016" speedFactor="0.94" vaporized=""/>
    <tripinfo id="carIn113711:1" depart="57601.00" departLane="-24693977#1_1" departPos="5.10" departSpeed="0.00" departDelay="0.70" arrival="57674.00" arrivalLane="-266565295#5_1" arrivalPos="172.76" arrivalSpeed="13.10" duration="73.00" routeLength="840.03" waitingTime="0.00" waitingCount="0" stopTime="0.00" timeLoss="8.08" rerouteNo="1" devices="tripinfo_carIn113711:1 routing_carIn113711:1" vType="default_016" speedFactor="0.95" vaporized=""/>
    <tripinfo id="randUni10474:1" depart="57605.00" departLane="124812856#0_1" departPos="5.10" departSpeed="0.00" departDelay="0.20" arrival="57675.00" arrivalLane="-653473569#5_1" arrivalPos="73.05" arrivalSpeed="12.37" duration="70.00" routeLength="450.40" waitingTime="23.00" waitingCount="2" stopTime="0.00" timeLoss="35.30" rerouteNo="1" devices="tripinfo_randUni10474:1 routing_randUni10474:1" vType="random_016" speedFactor="0.97" vaporized=""/>
    <tripinfo id="carIn77943:1" depart="57608.00" departLane="124812856#0_1" departPos="5.10" departSpeed="0.00" departDelay="2.50" arrival="57676.00" arrivalLane="-653473569#5_1" arrivalPos="73.05" arrivalSpeed="14.53" duration="68.00" routeLength="450.40" waitingTime="20.00" waitingCount="2" stopTime="0.00" timeLoss="40.12" rerouteNo="1" devices="tripinfo_carIn77943:1 routing_carIn77943:1" vType="default_016" speedFactor="1.20" vaporized=""/>
    <tripinfo id="carIn55461:1" depart="57652.00" departLane="10425609#0_1" departPos="5.10" departSpeed="0.00" departDelay="0.30" arrival="57677.00" arrivalLane="201956810_1" arrivalPos="71.65" arrivalSpeed="13.79" duration="25.00" routeLength="255.78" waitingTime="0.00" waitingCount="0" stopTime="0.00" timeLoss="5.71" rerouteNo="1" devices="tripinfo_carIn55461:1 routing_carIn55461:1" vType="default_016" speedFactor="1.05" vaporized=""/>
    <tripinfo id="carIn81046:1" depart="57611.00" departLane="124812856#0_1" departPos="5.10" departSpeed="0.00" departDelay="2.50" arrival="57680.00" arrivalLane="-653473569#5_1" arrivalPos="73.05" arrivalSpeed="12.90" duration="69.00" routeLength="450.40" waitingTime="16.00" waitingCount="1" stopTime="0.00" timeLoss="32.77" rerouteNo="1" devices="tripinfo_carIn81046:1 routing_carIn81046:1" vType="default_016" speedFactor="0.94" vaporized=""/>
    <tripinfo id="carIn33538:1" depart="57671.00" departLane="37386279_1" departPos="5.10" departSpeed="0.00" departDelay="0.30" arrival="57685.00" arrivalLane="-24634414#4_1" arrivalPos="22.88" arrivalSpeed="10.03" duration="14.00" routeLength="125.23" waitingTime="0.00" waitingCount="0" stopTime="0.00" timeLoss="4.25" rerouteNo="0" devices="tripinfo_carIn33538:1 routing_carIn33538:1" vType="default_016" speedFactor="1.21" vaporized=""/>
    <tripinfo id="carIn124416:1" depart="57663.00" departLane="-173169611#0_1" departPos="5.10" departSpeed="0.00" departDelay="0.50" arrival="57686.00" arrivalLane="201956820_1" arrivalPos="48.33" arrivalSpeed="13.29" duration="23.00" routeLength="122.35" waitingTime="6.00" waitingCount="1" stopTime="0.00" timeLoss="13.81" rerouteNo="0" devices="tripinfo_carIn124416:1 routing_carIn124416:1" vType="default_016" speedFactor="1.03" vaporized=""/>
    <tripinfo id="carIn96537:1" depart="57615.00" departLane="124812856#0_1" departPos="5.10" departSpeed="0.00" departDelay="3.80" arrival="57688.00" arrivalLane="202070434#2_2" arrivalPos="39.03" arrivalSpeed="13.81" duration="73.00" routeLength="569.75" waitingTime="14.00" waitingCount="2" stopTime="0.00" timeLoss="32.99" rerouteNo="1" devices="tripinfo_carIn96537:1 routing_carIn96537:1" vType="default_016" speedFactor="1.03" vaporized=""/>
    <tripinfo id="carIn102997:1" depart="57623.00" departLane="653473569#5_1" departPos="5.10" departSpeed="0.00" departDelay="4.80" arrival="57689.00" arrivalLane="201956811#0_1" arrivalPos="40.40" arrivalSpeed="14.59" duration="66.00" routeLength="313.24" waitingTime="18.00" waitingCount="3" stopTime="0.00" timeLoss="44.43" rerouteNo="1" devices="tripinfo_carIn102997:1 routing_carIn102997:1" vType="default_016" speedFactor="1.12" vaporized=""/>
    <tripinfo id="h21130c2:1" depart="57630.00" departLane="10425609#0_1" departPos="5.10" departSpeed="0.00" departDelay="0.10" arrival="57689.00" arrivalLane="202070434#2_1" arrivalPos="39.03" arrivalSpeed="11.37" duration="59.00" routeLength="432.30" waitingTime="8.00" waitingCount="1" stopTime="0.00" timeLoss="22.22" rerouteNo="1" devices="tripinfo_h21130c2:1 routing_h21130c2:1" vType="default_016" speedFactor="0.87" vaporized=""/>
    <tripinfo id="carIn51024:1" depart="57626.00" departLane="124812856#0_1" departPos="5.10" departSpeed="0.00" departDelay="9.90" arrival="57690.00" arrivalLane="202070434#2_2" arrivalPos="39.03" arrivalSpeed="14.62" duration="64.00" routeLength="569.75" waitingTime="1.00" waitingCount="1" stopTime="0.00" timeLoss="24.96" rerouteNo="1" devices="tripinfo_carIn51024:1 routing_carIn51024:1" vType="default_016" speedFactor="1.07" vaporized=""/>
    <tripinfo id="carIn13117:1" depart="57627.00" departLane="27920078#0_1" departPos="5.10" departSpeed="0.00" departDelay="1.80" arrival="57690.00" arrivalLane="201956820_2" arrivalPos="48.33" arrivalSpeed="13.63" duration="63.00" routeLength="552.44" waitingTime="8.00" waitingCount="2" stopTime="0.00" timeLoss="24.35" rerouteNo="1" devices="tripinfo_carIn13117:1 routing_carIn13117:1" vType="default_016" speedFactor="1.03" vaporized=""/>
    <tripinfo id="carIn26410:1" depart="57621.00" departLane="124812856#0_1" departPos="5.10" departSpeed="0.00" departDelay="7.50" arrival="57691.00" arrivalLane="202070434#2_1" arrivalPos="39.03" arrivalSpeed="11.12" duration="70.00" routeLength="569.75" waitingTime="6.00" waitingCount="2" stopTime="0.00" timeLoss="23.24" rerouteNo="1" devices="tripinfo_carIn26410:1 routing_carIn26410:1" vType="default_016" speedFactor="0.89" vaporized=""/>
    <tripinfo id="carIn75554:1" depart="57626.00" departLane="653473569#5_1" departPos="5.10" departSpeed="0.00" departDelay="5.20" arrival="57691.00" arrivalLane="201956811#0_1" arrivalPos="40.40" arrivalSpeed="13.91" duration="65.00" routeLength="313.24" waitingTime="16.00" waitingCount="2" stopTime="0.00" timeLoss="41.26" rerouteNo="1" devices="tripinfo_carIn75554:1 routing_carIn75554:1" vType="default_016" speedFactor="1.02" vaporized=""/>
    <tripinfo id="carIn20106:1" depart="57631.00" departLane="27920078#0_1" departPos="5.10" departSpeed="0.00" departDelay="3.70" arrival="57691.00" arrivalLane="201956820_1" arrivalPos="48.33" arrivalSpeed="14.07" duration="60.00" routeLength="555.86" waitingTime="6.00" waitingCount="1" stopTime="0.00" timeLoss="22.02" rerouteNo="1" devices="tripinfo_carIn20106:1 routing_carIn20106:1" vType="default_016" speedFactor="1.08" vaporized=""/>
    <tripinfo id="randUni20090:1" depart="57629.00" departLane="653473569#5_1" departPos="5.10" departSpeed="0.00" departDelay="1.00" arrival="57693.00" arrivalLane="201956811#0_1" arrivalPos="40.40" arrivalSpeed="11.39" duration="64.00" routeLength="313.24" waitingTime="14.00" waitingCount="2" stopTime="0.00" timeLoss="37.48" rerouteNo="1" devices="tripinfo_randUni20090:1 routing_randUni20090:1" vType="random_016" speedFactor="0.90" vaporized=""/>
    <tripinfo id="carIn131078:1" depart="57674.00" departLane="124812856#0_1" departPos="5.10" departSpeed="0.00" departDelay="38.60" arrival="57699.00" arrivalLane="201956810_1" arrivalPos="71.65" arrivalSpeed="12.69" duration="25.00" routeLength="134.91" waitingTime="0.00" waitingCount="0" stopTime="0.00" timeLoss="14.18" rerouteNo="1" devices="tripinfo_carIn131078:1 routing_carIn131078:1" vType="default_016" speedFactor="0.98" vaporized=""/>
    <tripinfo id="h20540c1:1" depart="57634.00" departLane="10425609#0_1" departPos="5.10" departSpeed="0.00" departDelay="0.50" arrival="57700.00" arrivalLane="-653473569#5_1" arrivalPos="73.05" arrivalSpeed="15.30" duration="66.00" routeLength="312.95" waitingTime="20.00" waitingCount="3" stopTime="0.00" timeLoss="45.59" rerouteNo="1" devices="tripinfo_h20540c1:1 routing_h20540c1:1" vType="default_016" speedFactor="1.17" vaporized=""/>
    <tripinfo id="carIn77438:1" depart="57618.00" departLane="124812856#0_1" departPos="5.10" departSpeed="0.00" departDelay="5.10" arrival="57703.00" arrivalLane="-653473569#5_1" arrivalPos="73.05" arrivalSpeed="13.63" duration="85.00" routeLength="450.40" waitingTime="21.00" waitingCount="4" stopTime="0.00" timeLoss="53.37" rerouteNo="1" devices="tripinfo_carIn77438:1 routing_carIn77438:1" vType="default_016" speedFactor="1.07" vaporized=""/>
    <tripinfo id="60R.41" depart="57623.00" departLane="27920078#0_1" departPos="12.10" departSpeed="0.00" departDelay="0.30" arrival="57705.00" arrivalLane="201956811#0_1" arrivalPos="40.40" arrivalSpeed="11.33" duration="82.00" routeLength="425.03" waitingTime="18.00" waitingCount="3" stopTime="0.00" timeLoss="50.50" rerouteNo="1" devices="tripinfo_60R.41 routing_60R.41" vType="bus" speedFactor="1.00" vaporized=""/>
    <tripinfo id="h19804c1:3" depart="57623.00" departLane="124812856#0_1" departPos="5.10" departSpeed="0.00" departDelay="7.50" arrival="57706.00" arrivalLane="-653473569#5_1" arrivalPos="73.05" arrivalSpeed="12.52" duration="83.00" routeLength="450.40" waitingTime="16.00" waitingCount="4" stopTime="0.00" timeLoss="46.86" rerouteNo="1" devices="tripinfo_h19804c1:3 routing_h19804c1:3" vType="default_016" speedFactor="0.94" vaporized=""/>
    <tripinfo id="carIn55090:1" depart="57666.00" departLane="-173169611#0_1" departPos="5.10" departSpeed="0.00" departDelay="1.40" arrival="57706.00" arrivalLane="201956820_1" arrivalPos="48.33" arrivalSpeed="12.64" duration="40.00" routeLength="122.35" waitingTime="18.00" waitingCount="2" stopTime="0.00" timeLoss="30.07" rerouteNo="0" devices="tripinfo_carIn55090:1 routing_carIn55090:1" vType="default_016" speedFactor="1.00" vaporized=""/>
    <tripinfo id="carIn115641:1" depart="57614.00" departLane="-24693977#1_1" departPos="5.10" departSpeed="0.00" departDelay="0.90" arrival="57707.00" arrivalLane="-266565295#5_1" arrivalPos="172.76" arrivalSpeed="12.90" duration="93.00" routeLength="840.03" waitingTime="19.00" waitingCount="1" stopTime="0.00" timeLoss="31.93" rerouteNo="1" devices="tripinfo_carIn115641:1 routing_carIn115641:1" vType="default_016" speedFactor="1.01" vaporized=""/>
    <tripinfo id="carIn767:1" depart="57632.00" departLane="124812856#0_1" departPos="5.10" departSpeed="0.00" departDelay="13.50" arrival="57707.00" arrivalLane="-653473569#5_1" arrivalPos="73.05" arrivalSpeed="13.20" duration="75.00" routeLength="450.40" waitingTime="9.00" waitingCount="1" stopTime="0.00" timeLoss="47.10" rerouteNo="1" devices="tripinfo_carIn767:1 routing_carIn767:1" vType="default_016" speedFactor="1.19" vaporized=""/>
    <tripinfo id="carIn52610:1" depart="57615.00" departLane="-24693977#1_1" departPos="5.10" departSpeed="0.00" departDelay="0.10" arrival="57709.00" arrivalLane="-266565295#5_2" arrivalPos="172.76" arrivalSpeed="13.62" duration="94.00" routeLength="840.03" waitingTime="12.00" waitingCount="1" stopTime="0.00" timeLoss="32.45" rerouteNo="1" devices="tripinfo_carIn52610:1 routing_carIn52610:1" vType="default_016" speedFactor="1.01" vaporized=""/>
    <tripinfo id="carIn114137:1" depart="57634.00" departLane="27920078#0_1" departPos="5.10" departSpeed="0.00" departDelay="3.10" arrival="57710.00" arrivalLane="-83304175#2_1" arrivalPos="189.34" arrivalSpeed="8.93" duration="76.00" routeLength="501.51" waitingTime="17.00" waitingCount="1" stopTime="0.00" timeLoss="35.64" rerouteNo="1" devices="tripinfo_carIn114137:1 routing_carIn114137:1" vType="default_016" speedFactor="1.18" vaporized=""/>
    <tripinfo id="carIn79400:1" depart="57604.00" departLane="-24693977#1_1" departPos="5.10" departSpeed="0.00" departDelay="0.10" arrival="57712.00" arrivalLane="-266565295#5_1" arrivalPos="172.76" arrivalSpeed="11.11" duration="108.00" routeLength="840.03" waitingTime="19.00" waitingCount="1" stopTime="0.00" timeLoss="31.06" rerouteNo="1" devices="tripinfo_carIn79400:1 routing_carIn79400:1" vType="default_016" speedFactor="0.80" vaporized=""/>
    <tripinfo id="carIn12900:1" depart="57692.00" departLane="124812856#0_1" departPos="5.10" departSpeed="0.00" departDelay="43.80" arrival="57712.00" arrivalLane="201956810_1" arrivalPos="71.65" arrivalSpeed="14.06" duration="20.00" routeLength="134.91" waitingTime="4.00" waitingCount="1" stopTime="0.00" timeLoss="9.94" rerouteNo="1" devices="tripinfo_carIn12900:1 routing_carIn12900:1" vType="default_016" speedFactor="1.05" vaporized=""/>
    <tripinfo id="h3688c1:1" depart="57679.00" departLane="315358253#1_1" departPos="5.10" departSpeed="0.00" departDelay="0.50" arrival="57714.00" arrivalLane="32978638#0_1" arrivalPos="49.29" arrivalSpeed="13.74" duration="35.00" routeLength="405.15" waitingTime="0.00" waitingCount="0" stopTime="0.00" timeLoss="6.50" rerouteNo="1" devices="tripinfo_h3688c1:1 routing_h3688c1:1" vType="default_016" speedFactor="1.08" vaporized=""/>
    <tripinfo id="carIn22637:1" depart="57635.00" departLane="27920078#0_1" departPos="5.10" departSpeed="0.00" departDelay="2.50" arrival="57716.00" arrivalLane="-83304175#2_1" arrivalPos="189.34" arrivalSpeed="8.24" duration="81.00" routeLength="501.51" waitingTime="17.00" waitingCount="2" stopTime="0.00" timeLoss="34.95" rerouteNo="1" devices="tripinfo_carIn22637:1 routing_carIn22637:1" vType="default_016" speedFactor="1.02" vaporized=""/>
    <tripinfo id="carIn12152:1" depart="57647.00" departLane="24599188#0.94_1" departPos="5.10" departSpeed="0.00" departDelay="0.50" arrival="57716.00" arrivalLane="24693977#1_1" arrivalPos="96.83" arrivalSpeed="12.48" duration="69.00" routeLength="511.77" waitingTime="7.00" waitingCount="1" stopTime="0.00" timeLoss="19.62" rerouteNo="1" devices="tripinfo_carIn12152:1 routing_carIn12152:1" vType="default_016" speedFactor="0.96" vaporized=""/>
    <tripinfo id="carIn128705:1" depart="57629.00" departLane="124812856#0_1" departPos="5.10" departSpeed="0.00" departDelay="10.60" arrival="57718.00" arrivalLane="202070434#2_2" arrivalPos="39.03" arrivalSpeed="13.63" duration="89.00" routeLength="569.75" waitingTime="15.00" waitingCount="3" stopTime="0.00" timeLoss="48.85" rerouteNo="1" devices="tripinfo_carIn128705:1 routing_carIn128705:1" vType="default_016" speedFactor="1.04" vaporized=""/>
    <tripinfo id="h21989c1:1" depart="57634.00" departLane="124812856#0_1" departPos="5.10" departSpeed="0.00" departDelay="13.60" arrival="57721.00" arrivalLane="202070434#2_2" arrivalPos="39.03" arrivalSpeed="14.47" duration="87.00" routeLength="569.75" waitingTime="8.00" waitingCount="3" stopTime="0.00" timeLoss="48.19" rerouteNo="1" devices="tripinfo_h21989c1:1 routing_h21989c1:1" vType="default_016" speedFactor="1.08" vaporized=""/>
    <tripinfo id="60.39" depart="57643.00" departLane="10425609#0_1" departPos="12.10" departSpeed="0.00" departDelay="0.50" arrival="57723.00" arrivalLane="202070434#2_1" arrivalPos="39.03" arrivalSpeed="13.58" duration="80.00" routeLength="425.30" waitingTime="14.00" waitingCount="3" stopTime="0.00" timeLoss="47.92" rerouteNo="1" devices="tripinfo_60.39 routing_60.39" vType="bus" speedFactor="1.00" vaporized=""/>
    <tripinfo id="carIn10158:1" depart="57622.00" departLane="-24693977#1_1" departPos="5.10" departSpeed="0.00" departDelay="0.80" arrival="57730.00" arrivalLane="-266565295#5_1" arrivalPos="172.76" arrivalSpeed="10.69" duration="108.00" routeLength="840.03" waitingTime="16.00" waitingCount="3" stopTime="0.00" timeLoss="36.29" rerouteNo="1" devices="tripinfo_carIn10158:1 routing_carIn10158:1" vType="default_016" speedFactor="0.86" vaporized=""/>
    <tripinfo id="randUni5403:1" depart="57632.00" departLane="315358253#1_1" departPos="5.10" departSpeed="0.00" departDelay="2.90" arrival="57733.00" arrivalLane="-653473569#5_1" arrivalPos="73.05" arrivalSpeed="13.32" duration="101.00" routeLength="970.09" waitingTime="9.00" waitingCount="2" stopTime="0.00" timeLoss="27.61" rerouteNo="1" devices="tripinfo_randUni5403:1 routing_randUni5403:1" vType="random_016" speedFactor="0.98" vaporized=""/>
    <tripinfo id="h5292c2:1" depart="57656.00" departLane="-24693977#1_1" departPos="5.10" departSpeed="0.00" departDelay="0.00" arrival="57733.00" arrivalLane="-266565295#5_1" arrivalPos="172.76" arrivalSpeed="11.62" duration="77.00" routeLength="840.03" waitingTime="0.00" waitingCount="0" stopTime="0.00" timeLoss="7.36" rerouteNo="1" devices="tripinfo_h5292c2:1 routing_h5292c2:1" vType="default_016" speedFactor="0.88" vaporized=""/>
    <tripinfo id="h317c2:1" depart="57707.00" departLane="-32978638#0_1" departPos="5.10" departSpeed="0.00" departDelay="0.10" arrival="57740.00" arrivalLane="-266565295#5_1" arrivalPos="172.76" arrivalSpeed="13.89" duration="33.00" routeLength="370.53" waitingTime="0.00" waitingCount="0" stopTime="0.00" timeLoss="5.64" rerouteNo="1" devices="tripinfo_h317c2:1 routing_h317c2:1" vType="default_016" speedFactor="1.03" vaporized=""/>
    <tripinfo id="carIn7887:1" depart="57661.00" departLane="27920078#0_1" departPos="5.10" departSpeed="0.00" departDelay="0.50" arrival="57743.00" arrivalLane="-83304175#2_1" arrivalPos="189.34" arrivalSpeed="6.75" duration="82.00" routeLength="501.51" waitingTime="19.00" waitingCount="1" stopTime="0.00" timeLoss="31.56" rerouteNo="1" devices="tripinfo_carIn7887:1 routing_carIn7887:1" vType="default_016" speedFactor="0.93" vaporized=""/>
    <tripinfo id="h10915c2:1" depart="57626.00" departLane="315358253#1_1" departPos="5.10" departSpeed="0.00" departDelay="0.20" arrival="57749.00" arrivalLane="-653473569#5_1" arrivalPos="73.05" arrivalSpeed="13.18" duration="123.00" routeLength="970.09" waitingTime="28.00" waitingCount="2" stopTime="0.00" timeLoss="53.22" rerouteNo="1" devices="tripinfo_h10915c2:1 routing_h10915c2:1" vType="default_016" speedFactor="1.02" vaporized=""/>
    <tripinfo id="carIn107842:1" depart="57637.00" departLane="124812856#0_1" departPos="5.10" departSpeed="0.00" departDelay="15.90" arrival="57751.00" arrivalLane="-653473569#5_1" arrivalPos="73.05" arrivalSpeed="12.68" duration="114.00" routeLength="450.40" waitingTime="43.00" waitingCount="3" stopTime="0.00" timeLoss="79.73" rerouteNo="1" devices="tripinfo_carIn107842:1 routing_carIn107842:1" vType="default_016" speedFactor="0.97" vaporized=""/>
    <tripinfo id="carIn3969:1" depart="57641.00" departLane="124812856#0_1" departPos="5.10" departSpeed="0.00" departDelay="17.30" arrival="57754.00" arrivalLane="-653473569#5_1" arrivalPos="73.05" arrivalSpeed="13.01" duration="113.00" routeLength="450.40" waitingTime="38.00" waitingCount="3" stopTime="0.00" timeLoss="78.93" rerouteNo="1" devices="tripinfo_carIn3969:1 routing_carIn3969:1" vType="default_016" speedFactor="0.99" vaporized=""/>
    <tripinfo id="h15382c1:3" depart="57638.00" departLane="124812856#0_1" departPos="5.10" departSpeed="0.00" departDelay="15.80" arrival="57756.00" arrivalLane="-653473569#5_1" arrivalPos="73.05" arrivalSpeed="13.42" duration="118.00" routeLength="450.40" waitingTime="37.00" waitingCount="3" stopTime="0.00" timeLoss="84.91" rerouteNo="1" devices="tripinfo_h15382c1:3 routing_h15382c1:3" vType="default_016" speedFactor="1.02" vaporized=""/>
    <tripinfo id="carIn38625:1" depart="57647.00" departLane="124812856#0_1" departPos="5.10" departSpeed="0.00" departDelay="21.50" arrival="57758.00" arrivalLane="-653473569#5_1" arrivalPos="73.05" arrivalSpeed="15.26" duration="111.00" routeLength="450.40" waitingTime="34.00" waitingCount="3" stopTime="0.00" timeLoss="82.43" rerouteNo="1" devices="tripinfo_carIn38625:1 routing_carIn38625:1" vType="default_016" speedFactor="1.17" vaporized=""/>
    <tripinfo id="randUni22709:1" depart="57718.00" departLane="315358253#1_1" departPos="5.10" departSpeed="0.00" departDelay="0.20" arrival="57758.00" arrivalLane="32978638#0_1" arrivalPos="49.29" arrivalSpeed="11.45" duration="40.00" routeLength="405.15" waitingTime="0.00" waitingCount="0" stopTime="0.00" timeLoss="6.12" rerouteNo="1" devices="tripinfo_randUni22709:1 routing_randUni22709:1" vType="random_016" speedFactor="0.91" vaporized=""/>
    <tripinfo id="carIn99509:1" depart="57720.00" departLane="-32978638#0_1" departPos="5.10" departSpeed="0.00" departDelay="0.20" arrival="57761.00" arrivalLane="-315358253#1_1" arrivalPos="63.90" arrivalSpeed="12.73" duration="41.00" routeLength="422.17" waitingTime="0.00" waitingCount="0" stopTime="0.00" timeLoss="5.78" rerouteNo="1" devices="tripinfo_carIn99509:1 routing_carIn99509:1" vType="default_015" speedFactor="0.92" vaporized=""/>
    <tripinfo id="carIn75079:1" depart="57747.00" departLane="-173169611#0_1" departPos="5.10" departSpeed="0.00" departDelay="0.60" arrival="57766.00" arrivalLane="201956820_1" arrivalPos="48.33" arrivalSpeed="13.62" duration="19.00" routeLength="122.35" waitingTime="0.00" waitingCount="0" stopTime="0.00" timeLoss="8.99" rerouteNo="0" devices="tripinfo_carIn75079:1 routing_carIn75079:1" vType="default_016" speedFactor="1.02" vaporized=""/>
    <tripinfo id="h134c1:3" depart="57721.00" departLane="315358253#1_1" departPos="5.10" departSpeed="0.00" departDelay="1.60" arrival="57769.00" arrivalLane="32978638#0_1" arrivalPos="49.29" arrivalSpeed="11.58" duration="48.00" routeLength="405.15" waitingTime="4.00" waitingCount="1" stopTime="0.00" timeLoss="14.56" rerouteNo="1" devices="tripinfo_h134c1:3 routing_h134c1:3" vType="default_016" speedFactor="0.92" vaporized=""/>
    <tripinfo id="h21189c1:3" depart="57722.00" departLane="10425609#0_1" departPos="5.10" departSpeed="0.00" departDelay="0.10" arrival="57769.00" arrivalLane="202070434#2_1" arrivalPos="39.03" arrivalSpeed="11.30" duration="47.00" routeLength="432.30" waitingTime="0.00" waitingCount="0" stopTime="0.00" timeLoss="10.26" rerouteNo="1" devices="tripinfo_h21189c1:3 routing_h21189c1:3" vType="default_016" speedFactor="0.88" vaporized=""/>
    <tripinfo id="carIn56649:1" depart="57644.00" departLane="124812856#0_1" departPos="5.10" departSpeed="0.00" departDelay="20.10" arrival="57772.00" arrivalLane="-653473569#5_1" arrivalPos="73.05" arrivalSpeed="15.91" duration="128.00" routeLength="450.40" waitingTime="39.00" waitingCount="4" stopTime="0.00" timeLoss="99.63" rerouteNo="1" devices="tripinfo_carIn56649:1 routing_carIn56649:1" vType="default_016" speedFactor="1.17" vaporized=""/>
    <tripinfo id="h330c1:1" depart="57736.00" departLane="-32978638#0_1" departPos="5.10" departSpeed="0.00" departDelay="0.20" arrival="57774.00" arrivalLane="-266565295#5_1" arrivalPos="172.76" arrivalSpeed="11.14" duration="38.00" routeLength="370.53" waitingTime="0.00" waitingCount="0" stopTime="0.00" timeLoss="5.89" rerouteNo="1" devices="tripinfo_h330c1:1 routing_h330c1:1" vType="default_016" speedFactor="0.86" vaporized=""/>