<?xml version="1.0" encoding="UTF-8"?>

<!-- generated on 2025-04-21 21:15:21 by Eclipse SUMO sumo Version 1.22.0
<sumoConfiguration xmlns:xsi="http://www.w3.org/2001/XMLSchema-instance" xsi:noNamespaceSchemaLocation="http://sumo.dlr.de/xsd/sumoConfiguration.xsd">

    <input>
        <net-file value="/home/kalset1/Documents/cmu/robo/16831/project/RESCO/resco_benchmark/environments/ingolstadt7/ingolstadt7.net.xml"/>
        <route-files value="/home/kalset1/Documents/cmu/robo/16831/project/RESCO/resco_benchmark/environments/ingolstadt7/ingolstadt7.rou.xml"/>
    </input>

    <output>
        <tripinfo-output value="/home/kalset1/Documents/cmu/robo/16831/project/RESCO/results/IDQN-tr0-ingolstadt7-7-drq_norm-wait_norm/tripinfo_18.xml"/>
        <tripinfo-output.write-unfinished value="true"/>
    </output>

    <time>
        <begin value="57600"/>
        <end value="61200"/>
    </time>

    <processing>
        <time-to-teleport value="-1"/>
    </processing>

    <report>
        <no-warnings value="True"/>
        <no-step-log value="True"/>
    </report>

    <traci_server>
        <remote-port value="59871"/>
    </traci_server>

    <random_number>
        <random value="true"/>
    </random_number>

</sumoConfiguration>
-->

<tripinfos xmlns:xsi="http://www.w3.org/2001/XMLSchema-instance" xsi:noNamespaceSchemaLocation="http://sumo.dlr.de/xsd/tripinfo_file.xsd">
    <tripinfo id="carIn89578:1" depart="57614.00" departLane="124812856#0_1" departPos="5.10" departSpeed="0.00" departDelay="3.60" arrival="57632.00" arrivalLane="201956810_1" arrivalPos="71.65" arrivalSpeed="18.40" duration="18.00" routeLength="134.91" waitingTime="0.00" waitingCount="0" stopTime="0.00" timeLoss="9.78" rerouteNo="1" devices="tripinfo_carIn89578:1 routing_carIn89578:1" vType="default_016" speedFactor="1.35" vaporized=""/>
    <tripinfo id="carIn28951:1" depart="57606.00" departLane="10425609#0_1" departPos="5.10" departSpeed="0.00" departDelay="0.20" arrival="57640.00" arrivalLane="-653473569#5_1" arrivalPos="73.05" arrivalSpeed="12.32" duration="34.00" routeLength="312.95" waitingTime="0.00" waitingCount="0" stopTime="0.00" timeLoss="7.12" rerouteNo="1" devices="tripinfo_carIn28951:1 routing_carIn28951:1" vType="default_016" speedFactor="0.92" vaporized=""/>
    <tripinfo id="carIn105842:1" depart="57601.00" departLane="653473569#5_1" departPos="5.10" departSpeed="0.00" departDelay="0.80" arrival="57653.00" arrivalLane="201956811#0_1" arrivalPos="40.40" arrivalSpeed="14.24" duration="52.00" routeLength="313.24" waitingTime="11.00" waitingCount="2" stopTime="0.00" timeLoss="30.57" rerouteNo="1" devices="tripinfo_carIn105842:1 routing_carIn105842:1" vType="default_016" speedFactor="1.11" vaporized=""/>
    <tripinfo id="carIn106322:1" depart="57614.00" departLane="653473569#5_1" departPos="5.10" departSpeed="0.00" departDelay="2.20" arrival="57655.00" arrivalLane="201956811#0_1" arrivalPos="40.40" arrivalSpeed="13.46" duration="41.00" routeLength="313.24" waitingTime="4.00" waitingCount="1" stopTime="0.00" timeLoss="17.07" rerouteNo="1" devices="tripinfo_carIn106322:1 routing_carIn106322:1" vType="default_016" speedFactor="1.02" vaporized=""/>
    <tripinfo id="h20232c1:2" depart="57634.00" departLane="-173169611#0_1" departPos="5.10" departSpeed="0.00" departDelay="0.50" arrival="57656.00" arrivalLane="201956820_1" arrivalPos="48.33" arrivalSpeed="13.81" duration="22.00" routeLength="122.35" waitingTime="4.00" waitingCount="1" stopTime="0.00" timeLoss="12.61" rerouteNo="0" devices="tripinfo_h20232c1:2 routing_h20232c1:2" vType="default_016" speedFactor="1.07" vaporized=""/>
    <tripinfo id="carIn5482:1" depart="57617.00" departLane="653473569#5_1" departPos="5.10" departSpeed="0.00" departDelay="3.60" arrival="57657.00" arrivalLane="201956811#0_1" arrivalPos="40.40" arrivalSpeed="11.79" duration="40.00" routeLength="313.24" waitingTime="5.00" waitingCount="1" stopTime="0.00" timeLoss="19.14" rerouteNo="1" devices="tripinfo_carIn5482:1 routing_carIn5482:1" vType="default_016" speedFactor="1.15" vaporized=""/>
    <tripinfo id="carIn25202:1" depart="57629.00" departLane="315358253#1_1" departPos="5.10" departSpeed="0.00" departDelay="1.50" arrival="57666.00" arrivalLane="32978638#0_1" arrivalPos="49.29" arrivalSpeed="13.43" duration="37.00" routeLength="405.15" waitingTime="0.00" waitingCount="0" stopTime="0.00" timeLoss="6.68" rerouteNo="1" devices="tripinfo_carIn25202:1 routing_carIn25202:1" vType="default_016" speedFactor="1.02" vaporized=""/>
    <tripinfo id="carIn107084:1" depart="57601.00" departLane="124812856#0_1" departPos="5.10" departSpeed="0.00" departDelay="0.70" arrival="57670.00" arrivalLane="-653473569#5_1" arrivalPos="73.05" arrivalSpeed="12.94" duration="69.00" routeLength="450.40" waitingTime="15.00" waitingCount="3" stopTime="0.00" timeLoss="36.02" rerouteNo="1" devices="tripinfo_carIn107084:1 routing_carIn107084:1" vType="default_016" speedFactor="1.01" vaporized=""/>
    <tripinfo id="carIn113711:1" depart="57601.00" departLane="-24693977#1_1" departPos="5.10" departSpeed="0.00" departDelay="0.70" arrival="57670.00" arrivalLane="-266565295#5_1" arrivalPos="172.76" arrivalSpeed="13.45" duration="69.00" routeLength="840.03" waitingTime="0.00" waitingCount="0" stopTime="0.00" timeLoss="8.13" rerouteNo="1" devices="tripinfo_carIn113711:1 routing_carIn113711:1" vType="default_016" speedFactor="1.01" vaporized=""/>
    <tripinfo id="carIn28488:1" depart="57611.00" departLane="653473569#5_1" departPos="5.10" departSpeed="0.00" departDelay="0.80" arrival="57671.00" arrivalLane="201956820_1" arrivalPos="48.33" arrivalSpeed="12.81" duration="60.00" routeLength="437.07" waitingTime="10.00" waitingCount="2" stopTime="0.00" timeLoss="25.66" rerouteNo="1" devices="tripinfo_carIn28488:1 routing_carIn28488:1" vType="default_016" speedFactor="0.95" vaporized=""/>
    <tripinfo id="carIn77943:1" depart="57608.00" departLane="124812856#0_1" departPos="5.10" departSpeed="0.00" departDelay="2.50" arrival="57672.00" arrivalLane="-653473569#5_1" arrivalPos="73.05" arrivalSpeed="15.14" duration="64.00" routeLength="450.40" waitingTime="13.00" waitingCount="3" stopTime="0.00" timeLoss="35.07" rerouteNo="1" devices="tripinfo_carIn77943:1 routing_carIn77943:1" vType="default_016" speedFactor="1.18" vaporized=""/>
    <tripinfo id="h645c1:1" depart="57622.00" departLane="266565295#5_1" departPos="5.10" departSpeed="0.00" departDelay="0.40" arrival="57673.00" arrivalLane="-315358253#1_1" arrivalPos="63.90" arrivalSpeed="12.45" duration="51.00" routeLength="547.76" waitingTime="0.00" waitingCount="0" stopTime="0.00" timeLoss="6.26" rerouteNo="1" devices="tripinfo_h645c1:1 routing_h645c1:1" vType="default_016" speedFactor="0.91" vaporized=""/>
    <tripinfo id="randUni10474:1" depart="57605.00" departLane="124812856#0_1" departPos="5.10" departSpeed="0.00" departDelay="0.20" arrival="57674.00" arrivalLane="-653473569#5_1" arrivalPos="73.05" arrivalSpeed="13.78" duration="69.00" routeLength="450.40" waitingTime="10.00" waitingCount="2" stopTime="0.00" timeLoss="36.71" rerouteNo="1" devices="tripinfo_randUni10474:1 routing_randUni10474:1" vType="random_016" speedFactor="1.05" vaporized=""/>
    <tripinfo id="h15454c2:3" depart="57612.00" departLane="24608844_1" departPos="5.10" departSpeed="0.00" departDelay="0.50" arrival="57675.00" arrivalLane="32978638#0_1" arrivalPos="49.29" arrivalSpeed="11.79" duration="63.00" routeLength="354.79" waitingTime="14.00" waitingCount="1" stopTime="0.00" timeLoss="25.23" rerouteNo="1" devices="tripinfo_h15454c2:3 routing_h15454c2:3" vType="default_016" speedFactor="0.91" vaporized=""/>
    <tripinfo id="carIn81046:1" depart="57611.00" departLane="124812856#0_1" departPos="5.10" departSpeed="0.00" departDelay="2.50" arrival="57677.00" arrivalLane="-653473569#5_1" arrivalPos="73.05" arrivalSpeed="11.57" duration="66.00" routeLength="450.40" waitingTime="7.00" waitingCount="1" stopTime="0.00" timeLoss="28.74" rerouteNo="1" devices="tripinfo_carIn81046:1 routing_carIn81046:1" vType="default_016" speedFactor="0.90" vaporized=""/>
    <tripinfo id="carIn26410:1" depart="57621.00" departLane="124812856#0_1" departPos="5.10" departSpeed="0.00" departDelay="7.50" arrival="57677.00" arrivalLane="202070434#2_2" arrivalPos="39.03" arrivalSpeed="12.36" duration="56.00" routeLength="569.75" waitingTime="0.00" waitingCount="0" stopTime="0.00" timeLoss="12.76" rerouteNo="1" devices="tripinfo_carIn26410:1 routing_carIn26410:1" vType="default_016" speedFactor="0.95" vaporized=""/>
    <tripinfo id="carIn52610:1" depart="57616.00" departLane="-24693977#1_1" departPos="5.10" departSpeed="0.00" departDelay="1.10" arrival="57677.00" arrivalLane="-266565295#5_2" arrivalPos="172.76" arrivalSpeed="16.22" duration="61.00" routeLength="840.03" waitingTime="0.00" waitingCount="0" stopTime="0.00" timeLoss="9.56" rerouteNo="1" devices="tripinfo_carIn52610:1 routing_carIn52610:1" vType="default_016" speedFactor="1.20" vaporized=""/>
    <tripinfo id="carIn96537:1" depart="57615.00" departLane="124812856#0_1" departPos="5.10" departSpeed="0.00" departDelay="3.80" arrival="57679.00" arrivalLane="202070434#2_1" arrivalPos="39.03" arrivalSpeed="11.25" duration="64.00" routeLength="569.75" waitingTime="4.00" waitingCount="1" stopTime="0.00" timeLoss="17.68" rerouteNo="1" devices="tripinfo_carIn96537:1 routing_carIn96537:1" vType="default_016" speedFactor="0.90" vaporized=""/>
    <tripinfo id="carIn77438:1" depart="57618.00" departLane="124812856#0_1" departPos="5.10" departSpeed="0.00" departDelay="5.10" arrival="57679.00" arrivalLane="-653473569#5_1" arrivalPos="73.05" arrivalSpeed="11.61" duration="61.00" routeLength="450.40" waitingTime="2.00" waitingCount="1" stopTime="0.00" timeLoss="23.84" rerouteNo="1" devices="tripinfo_carIn77438:1 routing_carIn77438:1" vType="default_016" speedFactor="0.90" vaporized=""/>
    <tripinfo id="carIn124416:1" depart="57663.00" departLane="-173169611#0_1" departPos="5.10" departSpeed="0.00" departDelay="0.50" arrival="57679.00" arrivalLane="201956820_1" arrivalPos="48.33" arrivalSpeed="12.64" duration="16.00" routeLength="122.35" waitingTime="0.00" waitingCount="0" stopTime="0.00" timeLoss="6.00" rerouteNo="0" devices="tripinfo_carIn124416:1 routing_carIn124416:1" vType="default_016" speedFactor="0.96" vaporized=""/>
    <tripinfo id="carIn55461:1" depart="57653.00" departLane="10425609#0_1" departPos="5.10" departSpeed="0.00" departDelay="1.30" arrival="57681.00" arrivalLane="201956810_1" arrivalPos="71.65" arrivalSpeed="11.30" duration="28.00" routeLength="255.78" waitingTime="0.00" waitingCount="0" stopTime="0.00" timeLoss="5.69" rerouteNo="1" devices="tripinfo_carIn55461:1 routing_carIn55461:1" vType="default_016" speedFactor="0.87" vaporized=""/>
    <tripinfo id="carIn55090:1" depart="57666.00" departLane="-173169611#0_1" departPos="5.10" departSpeed="0.00" departDelay="1.40" arrival="57682.00" arrivalLane="201956820_1" arrivalPos="48.33" arrivalSpeed="12.99" duration="16.00" routeLength="122.35" waitingTime="0.00" waitingCount="0" stopTime="0.00" timeLoss="5.79" rerouteNo="0" devices="tripinfo_carIn55090:1 routing_carIn55090:1" vType="default_016" speedFactor="0.96" vaporized=""/>
    <tripinfo id="carIn79400:1" depart="57604.00" departLane="-24693977#1_1" departPos="5.10" departSpeed="0.00" departDelay="0.10" arrival="57683.00" arrivalLane="-266565295#5_1" arrivalPos="172.76" arrivalSpeed="12.55" duration="79.00" routeLength="840.03" waitingTime="0.00" waitingCount="0" stopTime="0.00" timeLoss="13.55" rerouteNo="1" devices="tripinfo_carIn79400:1 routing_carIn79400:1" vType="default_016" speedFactor="0.94" vaporized=""/>
    <tripinfo id="carIn925:1" depart="57653.00" departLane="124812856#0_1" departPos="5.10" departSpeed="0.00" departDelay="26.90" arrival="57684.00" arrivalLane="201956810_1" arrivalPos="71.65" arrivalSpeed="11.91" duration="31.00" routeLength="134.91" waitingTime="6.00" waitingCount="2" stopTime="0.00" timeLoss="19.00" rerouteNo="1" devices="tripinfo_carIn925:1 routing_carIn925:1" vType="default_016" speedFactor="0.93" vaporized=""/>
    <tripinfo id="h21130c2:1" depart="57630.00" departLane="10425609#0_1" departPos="5.10" departSpeed="0.00" departDelay="0.10" arrival="57686.00" arrivalLane="202070434#2_1" arrivalPos="39.03" arrivalSpeed="14.44" duration="56.00" routeLength="432.30" waitingTime="13.00" waitingCount="1" stopTime="0.00" timeLoss="26.88" rerouteNo="1" devices="tripinfo_h21130c2:1 routing_h21130c2:1" vType="default_016" speedFactor="1.10" vaporized=""/>
    <tripinfo id="carIn36103:1" depart="57620.00" departLane="653473569#5_1" departPos="5.10" departSpeed="0.00" departDelay="4.00" arrival="57688.00" arrivalLane="201956811#0_1" arrivalPos="40.40" arrivalSpeed="13.28" duration="68.00" routeLength="313.24" waitingTime="26.00" waitingCount="3" stopTime="0.00" timeLoss="44.09" rerouteNo="1" devices="tripinfo_carIn36103:1 routing_carIn36103:1" vType="default_016" speedFactor="0.98" vaporized=""/>
    <tripinfo id="carIn102997:1" depart="57623.00" departLane="653473569#5_1" departPos="5.10" departSpeed="0.00" departDelay="4.80" arrival="57690.00" arrivalLane="201956811#0_1" arrivalPos="40.40" arrivalSpeed="13.90" duration="67.00" routeLength="313.24" waitingTime="15.00" waitingCount="3" stopTime="0.00" timeLoss="44.81" rerouteNo="1" devices="tripinfo_carIn102997:1 routing_carIn102997:1" vType="default_016" speedFactor="1.07" vaporized=""/>
    <tripinfo id="carIn33538:1" depart="57671.00" departLane="37386279_1" departPos="5.10" departSpeed="0.00" departDelay="0.30" arrival="57690.00" arrivalLane="-24634414#4_1" arrivalPos="22.88" arrivalSpeed="5.42" duration="19.00" routeLength="125.23" waitingTime="0.00" waitingCount="0" stopTime="0.00" timeLoss="3.34" rerouteNo="0" devices="tripinfo_carIn33538:1 routing_carIn33538:1" vType="default_016" speedFactor="0.73" vaporized=""/>
    <tripinfo id="h20540c1:1" depart="57634.00" departLane="10425609#0_1" departPos="5.10" departSpeed="0.00" departDelay="0.50" arrival="57691.00" arrivalLane="-653473569#5_1" arrivalPos="73.05" arrivalSpeed="12.45" duration="57.00" routeLength="312.95" waitingTime="14.00" waitingCount="2" stopTime="0.00" timeLoss="32.05" rerouteNo="1" devices="tripinfo_h20540c1:1 routing_h20540c1:1" vType="default_016" speedFactor="0.98" vaporized=""/>
    <tripinfo id="h19804c1:3" depart="57624.00" departLane="124812856#0_1" departPos="5.10" departSpeed="0.00" departDelay="8.50" arrival="57693.00" arrivalLane="-653473569#5_1" arrivalPos="73.05" arrivalSpeed="14.55" duration="69.00" routeLength="450.40" waitingTime="16.00" waitingCount="3" stopTime="0.00" timeLoss="36.90" rerouteNo="1" devices="tripinfo_h19804c1:3 routing_h19804c1:3" vType="default_016" speedFactor="1.06" vaporized=""/>
    <tripinfo id="carIn75554:1" depart="57626.00" departLane="653473569#5_1" departPos="5.10" departSpeed="0.00" departDelay="5.20" arrival="57693.00" arrivalLane="201956811#0_1" arrivalPos="40.40" arrivalSpeed="13.11" duration="67.00" routeLength="313.24" waitingTime="14.00" waitingCount="2" stopTime="0.00" timeLoss="42.40" rerouteNo="1" devices="tripinfo_carIn75554:1 routing_carIn75554:1" vType="default_016" speedFactor="0.96" vaporized=""/>
    <tripinfo id="carIn767:1" depart="57633.00" departLane="124812856#0_1" departPos="5.10" departSpeed="0.00" departDelay="14.50" arrival="57694.00" arrivalLane="-653473569#5_1" arrivalPos="73.05" arrivalSpeed="14.23" duration="61.00" routeLength="450.40" waitingTime="6.00" waitingCount="2" stopTime="0.00" timeLoss="31.28" rerouteNo="1" devices="tripinfo_carIn767:1 routing_carIn767:1" vType="default_016" speedFactor="1.11" vaporized=""/>
    <tripinfo id="randUni20090:1" depart="57629.00" departLane="653473569#5_1" departPos="5.10" departSpeed="0.00" departDelay="1.00" arrival="57695.00" arrivalLane="201956811#0_1" arrivalPos="40.40" arrivalSpeed="11.60" duration="66.00" routeLength="313.24" waitingTime="14.00" waitingCount="2" stopTime="0.00" timeLoss="39.64" rerouteNo="1" devices="tripinfo_randUni20090:1 routing_randUni20090:1" vType="random_016" speedFactor="0.90" vaporized=""/>
    <tripinfo id="carIn107842:1" depart="57639.00" departLane="124812856#0_1" departPos="5.10" departSpeed="0.00" departDelay="17.90" arrival="57696.00" arrivalLane="-653473569#5_1" arrivalPos="73.05" arrivalSpeed="15.44" duration="57.00" routeLength="450.40" waitingTime="3.00" waitingCount="1" stopTime="0.00" timeLoss="28.53" rerouteNo="1" devices="tripinfo_carIn107842:1 routing_carIn107842:1" vType="default_016" speedFactor="1.17" vaporized=""/>
    <tripinfo id="carIn37268:1" depart="57636.00" departLane="653473569#5_1" departPos="5.10" departSpeed="0.00" departDelay="0.90" arrival="57698.00" arrivalLane="201956811#0_1" arrivalPos="40.40" arrivalSpeed="14.54" duration="62.00" routeLength="313.24" waitingTime="12.00" waitingCount="2" stopTime="0.00" timeLoss="39.71" rerouteNo="1" devices="tripinfo_carIn37268:1 routing_carIn37268:1" vType="default_016" speedFactor="1.08" vaporized=""/>
    <tripinfo id="60R.41" depart="57623.00" departLane="27920078#0_1" departPos="12.10" departSpeed="0.00" departDelay="0.30" arrival="57700.00" arrivalLane="201956811#0_1" arrivalPos="40.40" arrivalSpeed="13.08" duration="77.00" routeLength="421.61" waitingTime="13.00" waitingCount="2" stopTime="0.00" timeLoss="46.30" rerouteNo="1" devices="tripinfo_60R.41 routing_60R.41" vType="bus" speedFactor="1.00" vaporized=""/>
    <tripinfo id="carIn115641:1" depart="57614.00" departLane="-24693977#1_1" departPos="5.10" departSpeed="0.00" departDelay="0.90" arrival="57703.00" arrivalLane="-266565295#5_1" arrivalPos="172.76" arrivalSpeed="12.16" duration="89.00" routeLength="840.03" waitingTime="12.00" waitingCount="1" stopTime="0.00" timeLoss="22.67" rerouteNo="1" devices="tripinfo_carIn115641:1 routing_carIn115641:1" vType="default_016" speedFactor="0.94" vaporized=""/>
    <tripinfo id="carIn129760:1" depart="57661.00" departLane="653473569#5_1" departPos="5.10" departSpeed="0.00" departDelay="0.80" arrival="57703.00" arrivalLane="201956811#0_1" arrivalPos="40.40" arrivalSpeed="11.97" duration="42.00" routeLength="313.24" waitingTime="2.00" waitingCount="1" stopTime="0.00" timeLoss="16.26" rerouteNo="1" devices="tripinfo_carIn129760:1 routing_carIn129760:1" vType="default_016" speedFactor="0.93" vaporized=""/>
    <tripinfo id="carIn131078:1" depart="57674.00" departLane="124812856#0_1" departPos="5.10" departSpeed="0.00" departDelay="38.60" arrival="57705.00" arrivalLane="201956810_1" arrivalPos="71.65" arrivalSpeed="13.36" duration="31.00" routeLength="134.91" waitingTime="6.00" waitingCount="2" stopTime="0.00" timeLoss="20.11" rerouteNo="1" devices="tripinfo_carIn131078:1 routing_carIn131078:1" vType="default_016" speedFactor="1.04" vaporized=""/>
    <tripinfo id="randUni27349:1" depart="57638.00" departLane="27920078#0_1" departPos="5.10" departSpeed="0.00" departDelay="4.10" arrival="57706.00" arrivalLane="201956811#0_1" arrivalPos="40.40" arrivalSpeed="12.24" duration="68.00" routeLength="432.03" waitingTime="11.00" waitingCount="3" stopTime="0.00" timeLoss="32.24" rerouteNo="1" devices="tripinfo_randUni27349:1 routing_randUni27349:1" vType="random_016" speedFactor="0.89" vaporized=""/>
    <tripinfo id="carIn114137:1" depart="57635.00" departLane="27920078#0_1" departPos="5.10" departSpeed="0.00" departDelay="4.10" arrival="57708.00" arrivalLane="-83304175#2_1" arrivalPos="189.34" arrivalSpeed="7.30" duration="73.00" routeLength="501.51" waitingTime="5.00" waitingCount="1" stopTime="0.00" timeLoss="19.67" rerouteNo="1" devices="tripinfo_carIn114137:1 routing_carIn114137:1" vType="default_016" speedFactor="0.89" vaporized=""/>
    <tripinfo id="carIn12152:1" depart="57647.00" departLane="24599188#0.94_1" departPos="5.10" departSpeed="0.00" departDelay="0.50" arrival="57708.00" arrivalLane="24693977#1_1" arrivalPos="96.83" arrivalSpeed="13.63" duration="61.00" routeLength="511.77" waitingTime="3.00" waitingCount="1" stopTime="0.00" timeLoss="14.64" rerouteNo="1" devices="tripinfo_carIn12152:1 routing_carIn12152:1" vType="default_016" speedFactor="1.03" vaporized=""/>
    <tripinfo id="carIn22637:1" depart="57636.00" departLane="27920078#0_1" departPos="5.10" departSpeed="0.00" departDelay="3.50" arrival="57710.00" arrivalLane="-83304175#2_1" arrivalPos="189.34" arrivalSpeed="8.06" duration="74.00" routeLength="501.51" waitingTime="4.00" waitingCount="1" stopTime="0.00" timeLoss="28.33" rerouteNo="1" devices="tripinfo_carIn22637:1 routing_carIn22637:1" vType="default_016" speedFactor="1.04" vaporized=""/>
    <tripinfo id="h3688c1:1" depart="57679.00" departLane="315358253#1_1" departPos="5.10" departSpeed="0.00" departDelay="0.50" arrival="57715.00" arrivalLane="32978638#0_1" arrivalPos="49.29" arrivalSpeed="14.23" duration="36.00" routeLength="405.15" waitingTime="0.00" waitingCount="0" stopTime="0.00" timeLoss="6.79" rerouteNo="1" devices="tripinfo_h3688c1:1 routing_h3688c1:1" vType="default_016" speedFactor="1.06" vaporized=""/>
    <tripinfo id="carIn51024:1" depart="57627.00" departLane="124812856#0_1" departPos="5.10" departSpeed="0.00" departDelay="10.90" arrival="57718.00" arrivalLane="202070434#2_2" arrivalPos="39.03" arrivalSpeed="15.15" duration="91.00" routeLength="569.75" waitingTime="26.00" waitingCount="3" stopTime="0.00" timeLoss="54.09" rerouteNo="1" devices="tripinfo_carIn51024:1 routing_carIn51024:1" vType="default_016" speedFactor="1.13" vaporized=""/>
    <tripinfo id="carIn128705:1" depart="57630.00" departLane="124812856#0_1" departPos="5.10" departSpeed="0.00" departDelay="11.60" arrival="57718.00" arrivalLane="202070434#2_1" arrivalPos="39.03" arrivalSpeed="14.13" duration="88.00" routeLength="569.75" waitingTime="24.00" waitingCount="3" stopTime="0.00" timeLoss="48.06" rerouteNo="1" devices="tripinfo_carIn128705:1 routing_carIn128705:1" vType="default_016" speedFactor="1.04" vaporized=""/>
    <tripinfo id="h10915c2:1" depart="57626.00" departLane="315358253#1_1" departPos="5.10" departSpeed="0.00" departDelay="0.20" arrival="57720.00" arrivalLane="-653473569#5_1" arrivalPos="73.05" arrivalSpeed="12.93" duration="94.00" routeLength="970.09" waitingTime="2.00" waitingCount="1" stopTime="0.00" timeLoss="20.45" rerouteNo="1" devices="tripinfo_h10915c2:1 routing_h10915c2:1" vType="default_016" speedFactor="0.97" vaporized=""/>
    <tripinfo id="h21989c1:1" depart="57636.00" departLane="124812856#0_1" departPos="5.10" departSpeed="0.00" departDelay="15.60" arrival="57722.00" arrivalLane="202070434#2_1" arrivalPos="39.03" arrivalSpeed="13.82" duration="86.00" routeLength="569.75" waitingTime="22.00" waitingCount="2" stopTime="0.00" timeLoss="46.69" rerouteNo="1" devices="tripinfo_h21989c1:1 routing_h21989c1:1" vType="default_016" speedFactor="1.07" vaporized=""/>
    <tripinfo id="h15382c1:3" depart="57641.00" departLane="124812856#0_1" departPos="5.10" departSpeed="0.00" departDelay="18.80" arrival="57722.00" arrivalLane="-653473569#5_1" arrivalPos="73.05" arrivalSpeed="14.82" duration="81.00" routeLength="450.40" waitingTime="24.00" waitingCount="3" stopTime="0.00" timeLoss="50.58" rerouteNo="1" devices="tripinfo_h15382c1:3 routing_h15382c1:3" vType="default_016" speedFactor="1.10" vaporized=""/>
    <tripinfo id="carIn56649:1" depart="57647.00" departLane="124812856#0_1" departPos="5.10" departSpeed="0.00" departDelay="23.10" arrival="57725.00" arrivalLane="-653473569#5_1" arrivalPos="73.05" arrivalSpeed="15.36" duration="78.00" routeLength="450.40" waitingTime="20.00" waitingCount="3" stopTime="0.00" timeLoss="48.25" rerouteNo="1" devices="tripinfo_carIn56649:1 routing_carIn56649:1" vType="default_016" speedFactor="1.15" vaporized=""/>
    <tripinfo id="carIn3969:1" depart="57644.00" departLane="124812856#0_1" departPos="5.10" departSpeed="0.00" departDelay="20.30" arrival="57727.00" arrivalLane="-653473569#5_1" arrivalPos="73.05" arrivalSpeed="13.18" duration="83.00" routeLength="450.40" waitingTime="24.00" waitingCount="3" stopTime="0.00" timeLoss="48.52" rerouteNo="1" devices="tripinfo_carIn3969:1 routing_carIn3969:1" vType="default_016" speedFactor="0.97" vaporized=""/>
    <tripinfo id="carIn10158:1" depart="57622.00" departLane="-24693977#1_1" departPos="5.10" departSpeed="0.00" departDelay="0.80" arrival="57729.00" arrivalLane="-266565295#5_1" arrivalPos="172.76" arrivalSpeed="12.16" duration="107.00" routeLength="840.03" waitingTime="24.00" waitingCount="2" stopTime="0.00" timeLoss="39.41" rerouteNo="1" devices="tripinfo_carIn10158:1 routing_carIn10158:1" vType="default_016" speedFactor="0.92" vaporized=""/>
    <tripinfo id="carIn38625:1" depart="57650.00" departLane="124812856#0_1" departPos="5.10" departSpeed="0.00" departDelay="24.50" arrival="57730.00" arrivalLane="-653473569#5_1" arrivalPos="73.05" arrivalSpeed="13.47" duration="80.00" routeLength="450.40" waitingTime="19.00" waitingCount="3" stopTime="0.00" timeLoss="46.29" rerouteNo="1" devices="tripinfo_carIn38625:1 routing_carIn38625:1" vType="default_016" speedFactor="1.01" vaporized=""/>
    <tripinfo id="carIn13117:1" depart="57628.00" departLane="27920078#0_1" departPos="5.10" departSpeed="0.00" departDelay="2.80" arrival="57731.00" arrivalLane="201956820_1" arrivalPos="48.33" arrivalSpeed="13.21" duration="103.00" routeLength="552.44" waitingTime="41.00" waitingCount="3" stopTime="0.00" timeLoss="61.48" rerouteNo="1" devices="tripinfo_carIn13117:1 routing_carIn13117:1" vType="default_016" speedFactor="0.98" vaporized=""/>
    <tripinfo id="carIn20106:1" depart="57631.00" departLane="27920078#0_1" departPos="5.10" departSpeed="0.00" departDelay="3.70" arrival="57732.00" arrivalLane="201956820_2" arrivalPos="48.33" arrivalSpeed="14.26" duration="101.00" routeLength="552.44" waitingTime="37.00" waitingCount="3" stopTime="0.00" timeLoss="63.20" rerouteNo="1" devices="tripinfo_carIn20106:1 routing_carIn20106:1" vType="default_016" speedFactor="1.08" vaporized=""/>
    <tripinfo id="carIn129626:1" depart="57664.00" departLane="653473569#5_1" departPos="5.10" departSpeed="0.00" departDelay="1.60" arrival="57732.00" arrivalLane="201956811#0_1" arrivalPos="40.40" arrivalSpeed="11.84" duration="68.00" routeLength="313.24" waitingTime="18.00" waitingCount="3" stopTime="0.00" timeLoss="42.31" rerouteNo="1" devices="tripinfo_carIn129626:1 routing_carIn129626:1" vType="default_016" speedFactor="0.93" vaporized=""/>
    <tripinfo id="h20403c1:5" depart="57641.00" departLane="27920078#0_1" departPos="5.10" departSpeed="0.00" departDelay="5.60" arrival="57734.00" arrivalLane="201956811#0_1" arrivalPos="40.40" arrivalSpeed="12.54" duration="93.00" routeLength="432.03" waitingTime="23.00" waitingCount="5" stopTime="0.00" timeLoss="59.65" rerouteNo="1" devices="tripinfo_h20403c1:5 routing_h20403c1:5" vType="default_016" speedFactor="0.96" vaporized=""/>
    <tripinfo id="carIn7887:1" depart="57661.00" departLane="27920078#0_1" departPos="5.10" departSpeed="0.00" departDelay="0.50" arrival="57734.00" arrivalLane="-83304175#2_1" arrivalPos="189.34" arrivalSpeed="7.34" duration="73.00" routeLength="501.51" waitingTime="10.00" waitingCount="1" stopTime="0.00" timeLoss="23.04" rerouteNo="1" devices="tripinfo_carIn7887:1 routing_carIn7887:1" vType="default_016" speedFactor="0.94" vaporized=""/>
    <tripinfo id="carIn12775:1" depart="57676.00" departLane="10425609#0_1" departPos="5.10" departSpeed="0.00" departDelay="0.60" arrival="57735.00" arrivalLane="-653473569#5_1" arrivalPos="73.05" arrivalSpeed="12.18" duration="59.00" routeLength="312.95" waitingTime="16.00" waitingCount="1" stopTime="0.00" timeLoss="33.00" rerouteNo="1" devices="tripinfo_carIn12775:1 routing_carIn12775:1" vType="default_016" speedFactor="0.93" vaporized=""/>
    <tripinfo id="carIn73466:1" depart="57644.00" departLane="27920078#0_1" departPos="5.10" departSpeed="0.00" departDelay="7.10" arrival="57736.00" arrivalLane="201956811#0_1" arrivalPos="40.40" arrivalSpeed="16.58" duration="92.00" routeLength="432.03" waitingTime="19.00" waitingCount="3" stopTime="0.00" timeLoss="65.07" rerouteNo="1" devices="tripinfo_carIn73466:1 routing_carIn73466:1" vType="default_016" speedFactor="1.20" vaporized=""/>
    <tripinfo id="60.39" depart="57643.00" departLane="10425609#0_1" departPos="12.10" departSpeed="0.00" departDelay="0.50" arrival="57737.00" arrivalLane="202070434#2_1" arrivalPos="39.03" arrivalSpeed="13.58" duration="94.00" routeLength="425.30" waitingTime="41.00" waitingCount="2" stopTime="0.00" timeLoss="62.13" rerouteNo="1" devices="tripinfo_60.39 routing_60.39" vType="bus" speedFactor="1.00" vaporized=""/>
    <tripinfo id="carIn12900:1" depart="57700.00" departLane="124812856#0_1" departPos="5.10" departSpeed="0.00" departDelay="51.80" arrival="57738.00" arrivalLane="201956810_1" arrivalPos="71.65" arrivalSpeed="12.63" duration="38.00" routeLength="134.91" waitingTime="12.00" waitingCount="3" stopTime="0.00" timeLoss="26.05" rerouteNo="1" devices="tripinfo_carIn12900:1 routing_carIn12900:1" vType="default_016" speedFactor="0.93" vaporized=""/>
    <tripinfo id="h317c2:1" depart="57707.00" departLane="-32978638#0_1" departPos="5.10" departSpeed="0.00" departDelay="0.10" arrival="57742.00" arrivalLane="-266565295#5_1" arrivalPos="172.76" arrivalSpeed="12.27" duration="35.00" routeLength="370.53" waitingTime="0.00" waitingCount="0" stopTime="0.00" timeLoss="5.73" rerouteNo="1" devices="tripinfo_h317c2:1 routing_h317c2:1" vType="default_016" speedFactor="0.93" vaporized=""/>
    <tripinfo id="carIn106665:1" depart="57659.00" departLane="266565295#5_1" departPos="5.10" departSpeed="0.00" departDelay="1.80" arrival="57746.00" arrivalLane="24693977#1_1" arrivalPos="96.83" arrivalSpeed="11.19" duration="87.00" routeLength="834.40" waitingTime="1.00" waitingCount="1" stopTime="0.00" timeLoss="16.91" rerouteNo="1" devices="tripinfo_carIn106665:1 routing_carIn106665:1" vType="default_016" speedFactor="0.88" vaporized=""/>