<?xml version="1.0" encoding="UTF-8"?>

<!-- generated on 2025-04-21 21:21:32 by Eclipse SUMO sumo Version 1.22.0
<sumoConfiguration xmlns:xsi="http://www.w3.org/2001/XMLSchema-instance" xsi:noNamespaceSchemaLocation="http://sumo.dlr.de/xsd/sumoConfiguration.xsd">

    <input>
        <net-file value="/home/kalset1/Documents/cmu/robo/16831/project/RESCO/resco_benchmark/environments/ingolstadt7/ingolstadt7.net.xml"/>
        <route-files value="/home/kalset1/Documents/cmu/robo/16831/project/RESCO/resco_benchmark/environments/ingolstadt7/ingolstadt7.rou.xml"/>
    </input>

    <output>
        <tripinfo-output value="/home/kalset1/Documents/cmu/robo/16831/project/RESCO/results/IDQN-tr0-ingolstadt7-7-drq_norm-wait_norm/tripinfo_42.xml"/>
        <tripinfo-output.write-unfinished value="true"/>
    </output>

    <time>
        <begin value="57600"/>
        <end value="61200"/>
    </time>

    <processing>
        <time-to-teleport value="-1"/>
    </processing>

    <report>
        <no-warnings value="True"/>
        <no-step-log value="True"/>
    </report>

    <traci_server>
        <remote-port value="53125"/>
    </traci_server>

    <random_number>
        <random value="true"/>
    </random_number>

</sumoConfiguration>
-->

<tripinfos xmlns:xsi="http://www.w3.org/2001/XMLSchema-instance" xsi:noNamespaceSchemaLocation="http://sumo.dlr.de/xsd/tripinfo_file.xsd">
    <tripinfo id="carIn105842:1" depart="57601.00" departLane="653473569#5_1" departPos="5.10" departSpeed="0.00" departDelay="0.80" arrival="57633.00" arrivalLane="201956811#0_1" arrivalPos="40.40" arrivalSpeed="12.03" duration="32.00" routeLength="313.24" waitingTime="0.00" waitingCount="0" stopTime="0.00" timeLoss="6.51" rerouteNo="1" devices="tripinfo_carIn105842:1 routing_carIn105842:1" vType="default_016" speedFactor="0.94" vaporized=""/>
    <tripinfo id="carIn106322:1" depart="57614.00" departLane="653473569#5_1" departPos="5.10" departSpeed="0.00" departDelay="2.20" arrival="57648.00" arrivalLane="201956811#0_1" arrivalPos="40.40" arrivalSpeed="12.94" duration="34.00" routeLength="313.24" waitingTime="0.00" waitingCount="0" stopTime="0.00" timeLoss="8.98" rerouteNo="1" devices="tripinfo_carIn106322:1 routing_carIn106322:1" vType="default_016" speedFactor="0.98" vaporized=""/>
    <tripinfo id="carIn5482:1" depart="57617.00" departLane="653473569#5_1" departPos="5.10" departSpeed="0.00" departDelay="3.60" arrival="57649.00" arrivalLane="201956811#0_1" arrivalPos="40.40" arrivalSpeed="13.57" duration="32.00" routeLength="313.24" waitingTime="0.00" waitingCount="0" stopTime="0.00" timeLoss="9.31" rerouteNo="1" devices="tripinfo_carIn5482:1 routing_carIn5482:1" vType="default_016" speedFactor="1.03" vaporized=""/>
    <tripinfo id="h20232c1:2" depart="57634.00" departLane="-173169611#0_1" departPos="5.10" departSpeed="0.00" departDelay="0.50" arrival="57650.00" arrivalLane="201956820_1" arrivalPos="48.33" arrivalSpeed="10.16" duration="16.00" routeLength="122.35" waitingTime="0.00" waitingCount="0" stopTime="0.00" timeLoss="4.69" rerouteNo="0" devices="tripinfo_h20232c1:2 routing_h20232c1:2" vType="default_016" speedFactor="0.81" vaporized=""/>
    <tripinfo id="carIn36103:1" depart="57620.00" departLane="653473569#5_1" departPos="5.10" departSpeed="0.00" departDelay="4.00" arrival="57651.00" arrivalLane="201956811#0_1" arrivalPos="40.40" arrivalSpeed="15.53" duration="31.00" routeLength="313.24" waitingTime="0.00" waitingCount="0" stopTime="0.00" timeLoss="9.57" rerouteNo="1" devices="tripinfo_carIn36103:1 routing_carIn36103:1" vType="default_016" speedFactor="1.15" vaporized=""/>
    <tripinfo id="carIn102997:1" depart="57623.00" departLane="653473569#5_1" departPos="5.10" departSpeed="0.00" departDelay="4.80" arrival="57653.00" arrivalLane="201956811#0_1" arrivalPos="40.40" arrivalSpeed="13.85" duration="30.00" routeLength="313.24" waitingTime="0.00" waitingCount="0" stopTime="0.00" timeLoss="7.82" rerouteNo="1" devices="tripinfo_carIn102997:1 routing_carIn102997:1" vType="default_016" speedFactor="1.07" vaporized=""/>
    <tripinfo id="h15454c2:3" depart="57612.00" departLane="24608844_1" departPos="5.10" departSpeed="0.00" departDelay="0.50" arrival="57654.00" arrivalLane="32978638#0_1" arrivalPos="49.29" arrivalSpeed="12.63" duration="42.00" routeLength="354.79" waitingTime="0.00" waitingCount="0" stopTime="0.00" timeLoss="6.35" rerouteNo="1" devices="tripinfo_h15454c2:3 routing_h15454c2:3" vType="default_016" speedFactor="0.98" vaporized=""/>
    <tripinfo id="carIn77943:1" depart="57607.00" departLane="124812856#0_1" departPos="5.10" departSpeed="0.00" departDelay="1.50" arrival="57655.00" arrivalLane="-653473569#5_1" arrivalPos="73.05" arrivalSpeed="15.67" duration="48.00" routeLength="450.40" waitingTime="7.00" waitingCount="1" stopTime="0.00" timeLoss="19.06" rerouteNo="1" devices="tripinfo_carIn77943:1 routing_carIn77943:1" vType="default_016" speedFactor="1.16" vaporized=""/>
    <tripinfo id="carIn28488:1" depart="57611.00" departLane="653473569#5_1" departPos="5.10" departSpeed="0.00" departDelay="0.80" arrival="57661.00" arrivalLane="201956820_1" arrivalPos="48.33" arrivalSpeed="11.50" duration="50.00" routeLength="437.07" waitingTime="0.00" waitingCount="0" stopTime="0.00" timeLoss="11.58" rerouteNo="1" devices="tripinfo_carIn28488:1 routing_carIn28488:1" vType="default_016" speedFactor="0.86" vaporized=""/>
    <tripinfo id="carIn75554:1" depart="57626.00" departLane="653473569#5_1" departPos="5.10" departSpeed="0.00" departDelay="5.20" arrival="57662.00" arrivalLane="201956811#0_1" arrivalPos="40.40" arrivalSpeed="13.37" duration="36.00" routeLength="313.24" waitingTime="0.00" waitingCount="0" stopTime="0.00" timeLoss="10.87" rerouteNo="1" devices="tripinfo_carIn75554:1 routing_carIn75554:1" vType="default_016" speedFactor="0.98" vaporized=""/>
    <tripinfo id="carIn89578:1" depart="57613.00" departLane="124812856#0_1" departPos="5.10" departSpeed="0.00" departDelay="2.60" arrival="57665.00" arrivalLane="201956810_1" arrivalPos="71.65" arrivalSpeed="14.21" duration="52.00" routeLength="134.91" waitingTime="27.00" waitingCount="2" stopTime="0.00" timeLoss="41.89" rerouteNo="1" devices="tripinfo_carIn89578:1 routing_carIn89578:1" vType="default_016" speedFactor="1.06" vaporized=""/>
    <tripinfo id="randUni20090:1" depart="57629.00" departLane="653473569#5_1" departPos="5.10" departSpeed="0.00" departDelay="1.00" arrival="57670.00" arrivalLane="201956811#0_1" arrivalPos="40.40" arrivalSpeed="13.37" duration="41.00" routeLength="313.24" waitingTime="6.00" waitingCount="1" stopTime="0.00" timeLoss="16.95" rerouteNo="1" devices="tripinfo_randUni20090:1 routing_randUni20090:1" vType="random_016" speedFactor="1.00" vaporized=""/>
    <tripinfo id="carIn25202:1" depart="57629.00" departLane="315358253#1_1" departPos="5.10" departSpeed="0.00" departDelay="1.50" arrival="57672.00" arrivalLane="32978638#0_1" arrivalPos="49.29" arrivalSpeed="12.83" duration="43.00" routeLength="405.15" waitingTime="0.00" waitingCount="0" stopTime="0.00" timeLoss="11.42" rerouteNo="1" devices="tripinfo_carIn25202:1 routing_carIn25202:1" vType="default_016" speedFactor="0.98" vaporized=""/>
    <tripinfo id="h645c1:1" depart="57622.00" departLane="266565295#5_1" departPos="5.10" departSpeed="0.00" departDelay="0.40" arrival="57673.00" arrivalLane="-315358253#1_1" arrivalPos="63.90" arrivalSpeed="11.98" duration="51.00" routeLength="547.76" waitingTime="0.00" waitingCount="0" stopTime="0.00" timeLoss="6.68" rerouteNo="1" devices="tripinfo_h645c1:1 routing_h645c1:1" vType="default_016" speedFactor="0.92" vaporized=""/>
    <tripinfo id="carIn124416:1" depart="57663.00" departLane="-173169611#0_1" departPos="5.10" departSpeed="0.00" departDelay="0.50" arrival="57678.00" arrivalLane="201956820_1" arrivalPos="48.33" arrivalSpeed="14.46" duration="15.00" routeLength="122.35" waitingTime="0.00" waitingCount="0" stopTime="0.00" timeLoss="5.48" rerouteNo="0" devices="tripinfo_carIn124416:1 routing_carIn124416:1" vType="default_016" speedFactor="1.06" vaporized=""/>
    <tripinfo id="carIn37268:1" depart="57636.00" departLane="653473569#5_1" departPos="5.10" departSpeed="0.00" departDelay="0.90" arrival="57681.00" arrivalLane="201956811#0_1" arrivalPos="40.40" arrivalSpeed="11.44" duration="45.00" routeLength="313.24" waitingTime="4.00" waitingCount="2" stopTime="0.00" timeLoss="18.62" rerouteNo="1" devices="tripinfo_carIn37268:1 routing_carIn37268:1" vType="default_016" speedFactor="0.91" vaporized=""/>
    <tripinfo id="carIn55090:1" depart="57666.00" departLane="-173169611#0_1" departPos="5.10" departSpeed="0.00" departDelay="1.40" arrival="57681.00" arrivalLane="201956820_1" arrivalPos="48.33" arrivalSpeed="13.40" duration="15.00" routeLength="122.35" waitingTime="0.00" waitingCount="0" stopTime="0.00" timeLoss="5.33" rerouteNo="0" devices="tripinfo_carIn55090:1 routing_carIn55090:1" vType="default_016" speedFactor="1.04" vaporized=""/>
    <tripinfo id="carIn33538:1" depart="57671.00" departLane="37386279_1" departPos="5.10" departSpeed="0.00" departDelay="0.30" arrival="57686.00" arrivalLane="-24634414#4_1" arrivalPos="22.88" arrivalSpeed="8.35" duration="15.00" routeLength="125.23" waitingTime="0.00" waitingCount="0" stopTime="0.00" timeLoss="4.58" rerouteNo="0" devices="tripinfo_carIn33538:1 routing_carIn33538:1" vType="default_016" speedFactor="1.09" vaporized=""/>
    <tripinfo id="carIn113711:1" depart="57601.00" departLane="-24693977#1_1" departPos="5.10" departSpeed="0.00" departDelay="0.70" arrival="57687.00" arrivalLane="-266565295#5_1" arrivalPos="172.76" arrivalSpeed="14.67" duration="86.00" routeLength="840.03" waitingTime="15.00" waitingCount="2" stopTime="0.00" timeLoss="32.00" rerouteNo="1" devices="tripinfo_carIn113711:1 routing_carIn113711:1" vType="default_016" speedFactor="1.15" vaporized=""/>
    <tripinfo id="carIn79400:1" depart="57604.00" departLane="-24693977#1_1" departPos="5.10" departSpeed="0.00" departDelay="0.10" arrival="57687.00" arrivalLane="-266565295#5_2" arrivalPos="172.76" arrivalSpeed="15.49" duration="83.00" routeLength="840.03" waitingTime="7.00" waitingCount="2" stopTime="0.00" timeLoss="28.40" rerouteNo="1" devices="tripinfo_carIn79400:1 routing_carIn79400:1" vType="default_016" speedFactor="1.14" vaporized=""/>
    <tripinfo id="carIn55461:1" depart="57653.00" departLane="10425609#0_1" departPos="5.10" departSpeed="0.00" departDelay="1.30" arrival="57688.00" arrivalLane="201956810_1" arrivalPos="71.65" arrivalSpeed="16.67" duration="35.00" routeLength="255.78" waitingTime="8.00" waitingCount="1" stopTime="0.00" timeLoss="18.86" rerouteNo="1" devices="tripinfo_carIn55461:1 routing_carIn55461:1" vType="default_016" speedFactor="1.23" vaporized=""/>
    <tripinfo id="60R.41" depart="57623.00" departLane="27920078#0_1" departPos="12.10" departSpeed="0.00" departDelay="0.30" arrival="57689.00" arrivalLane="201956811#0_1" arrivalPos="40.40" arrivalSpeed="13.33" duration="66.00" routeLength="425.03" waitingTime="14.00" waitingCount="1" stopTime="0.00" timeLoss="35.00" rerouteNo="1" devices="tripinfo_60R.41 routing_60R.41" vType="bus" speedFactor="1.00" vaporized=""/>
    <tripinfo id="carIn107084:1" depart="57601.00" departLane="124812856#0_1" departPos="5.10" departSpeed="0.00" departDelay="0.70" arrival="57691.00" arrivalLane="-653473569#5_1" arrivalPos="73.05" arrivalSpeed="11.87" duration="90.00" routeLength="450.40" waitingTime="35.00" waitingCount="3" stopTime="0.00" timeLoss="53.81" rerouteNo="1" devices="tripinfo_carIn107084:1 routing_carIn107084:1" vType="default_016" speedFactor="0.92" vaporized=""/>
    <tripinfo id="randUni27349:1" depart="57636.00" departLane="27920078#0_1" departPos="5.10" departSpeed="0.00" departDelay="2.10" arrival="57692.00" arrivalLane="201956811#0_1" arrivalPos="40.40" arrivalSpeed="12.57" duration="56.00" routeLength="432.03" waitingTime="7.00" waitingCount="1" stopTime="0.00" timeLoss="23.60" rerouteNo="1" devices="tripinfo_randUni27349:1 routing_randUni27349:1" vType="random_016" speedFactor="0.99" vaporized=""/>
    <tripinfo id="randUni10474:1" depart="57605.00" departLane="124812856#0_1" departPos="5.10" departSpeed="0.00" departDelay="0.20" arrival="57693.00" arrivalLane="-653473569#5_1" arrivalPos="73.05" arrivalSpeed="13.28" duration="88.00" routeLength="450.40" waitingTime="30.00" waitingCount="3" stopTime="0.00" timeLoss="54.29" rerouteNo="1" devices="tripinfo_randUni10474:1 routing_randUni10474:1" vType="random_016" speedFactor="1.00" vaporized=""/>
    <tripinfo id="carIn129760:1" depart="57661.00" departLane="653473569#5_1" departPos="5.10" departSpeed="0.00" departDelay="0.80" arrival="57695.00" arrivalLane="201956811#0_1" arrivalPos="40.40" arrivalSpeed="14.18" duration="34.00" routeLength="313.24" waitingTime="0.00" waitingCount="0" stopTime="0.00" timeLoss="10.70" rerouteNo="1" devices="tripinfo_carIn129760:1 routing_carIn129760:1" vType="default_016" speedFactor="1.03" vaporized=""/>
    <tripinfo id="carIn115641:1" depart="57614.00" departLane="-24693977#1_1" departPos="5.10" departSpeed="0.00" departDelay="0.90" arrival="57696.00" arrivalLane="-266565295#5_1" arrivalPos="172.76" arrivalSpeed="12.07" duration="82.00" routeLength="840.03" waitingTime="0.00" waitingCount="0" stopTime="0.00" timeLoss="14.89" rerouteNo="1" devices="tripinfo_carIn115641:1 routing_carIn115641:1" vType="default_016" speedFactor="0.92" vaporized=""/>
    <tripinfo id="carIn96537:1" depart="57614.00" departLane="124812856#0_1" departPos="5.10" departSpeed="0.00" departDelay="2.80" arrival="57699.00" arrivalLane="202070434#2_1" arrivalPos="39.03" arrivalSpeed="12.38" duration="85.00" routeLength="569.75" waitingTime="19.00" waitingCount="3" stopTime="0.00" timeLoss="42.30" rerouteNo="1" devices="tripinfo_carIn96537:1 routing_carIn96537:1" vType="default_016" speedFactor="0.96" vaporized=""/>
    <tripinfo id="carIn52610:1" depart="57615.00" departLane="-24693977#1_1" departPos="5.10" departSpeed="0.00" departDelay="0.10" arrival="57707.00" arrivalLane="-266565295#5_1" arrivalPos="172.76" arrivalSpeed="13.64" duration="92.00" routeLength="840.03" waitingTime="20.00" waitingCount="1" stopTime="0.00" timeLoss="34.25" rerouteNo="1" devices="tripinfo_carIn52610:1 routing_carIn52610:1" vType="default_016" speedFactor="1.06" vaporized=""/>
    <tripinfo id="h20403c1:5" depart="57639.00" departLane="27920078#0_1" departPos="5.10" departSpeed="0.00" departDelay="3.60" arrival="57707.00" arrivalLane="201956811#0_1" arrivalPos="40.40" arrivalSpeed="12.61" duration="68.00" routeLength="432.03" waitingTime="11.00" waitingCount="3" stopTime="0.00" timeLoss="34.97" rerouteNo="1" devices="tripinfo_h20403c1:5 routing_h20403c1:5" vType="default_016" speedFactor="0.97" vaporized=""/>
    <tripinfo id="carIn129626:1" depart="57664.00" departLane="653473569#5_1" departPos="5.10" departSpeed="0.00" departDelay="1.60" arrival="57709.00" arrivalLane="201956811#0_1" arrivalPos="40.40" arrivalSpeed="12.86" duration="45.00" routeLength="313.24" waitingTime="1.00" waitingCount="1" stopTime="0.00" timeLoss="18.73" rerouteNo="1" devices="tripinfo_carIn129626:1 routing_carIn129626:1" vType="default_016" speedFactor="0.93" vaporized=""/>
    <tripinfo id="carIn10158:1" depart="57622.00" departLane="-24693977#1_1" departPos="5.10" departSpeed="0.00" departDelay="0.80" arrival="57710.00" arrivalLane="-266565295#5_1" arrivalPos="172.76" arrivalSpeed="14.64" duration="88.00" routeLength="840.03" waitingTime="19.00" waitingCount="1" stopTime="0.00" timeLoss="30.44" rerouteNo="1" devices="tripinfo_carIn10158:1 routing_carIn10158:1" vType="default_016" speedFactor="1.08" vaporized=""/>
    <tripinfo id="carIn114137:1" depart="57634.00" departLane="27920078#0_1" departPos="5.10" departSpeed="0.00" departDelay="3.10" arrival="57710.00" arrivalLane="-83304175#2_1" arrivalPos="189.34" arrivalSpeed="8.99" duration="76.00" routeLength="501.51" waitingTime="18.00" waitingCount="1" stopTime="0.00" timeLoss="32.34" rerouteNo="1" devices="tripinfo_carIn114137:1 routing_carIn114137:1" vType="default_016" speedFactor="1.09" vaporized=""/>
    <tripinfo id="carIn81046:1" depart="57610.00" departLane="124812856#0_1" departPos="5.10" departSpeed="0.00" departDelay="1.50" arrival="57711.00" arrivalLane="-653473569#5_1" arrivalPos="73.05" arrivalSpeed="14.78" duration="101.00" routeLength="450.40" waitingTime="39.00" waitingCount="5" stopTime="0.00" timeLoss="70.64" rerouteNo="1" devices="tripinfo_carIn81046:1 routing_carIn81046:1" vType="default_016" speedFactor="1.11" vaporized=""/>
    <tripinfo id="h20539c1:3" depart="57667.00" departLane="653473569#5_1" departPos="5.10" departSpeed="0.00" departDelay="2.20" arrival="57711.00" arrivalLane="201956811#0_1" arrivalPos="40.40" arrivalSpeed="13.92" duration="44.00" routeLength="313.24" waitingTime="0.00" waitingCount="0" stopTime="0.00" timeLoss="20.69" rerouteNo="1" devices="tripinfo_h20539c1:3 routing_h20539c1:3" vType="default_016" speedFactor="1.06" vaporized=""/>
    <tripinfo id="carIn28951:1" depart="57606.00" departLane="10425609#0_1" departPos="5.10" departSpeed="0.00" departDelay="0.20" arrival="57713.00" arrivalLane="-653473569#5_1" arrivalPos="73.05" arrivalSpeed="13.38" duration="107.00" routeLength="312.95" waitingTime="54.00" waitingCount="5" stopTime="0.00" timeLoss="82.19" rerouteNo="1" devices="tripinfo_carIn28951:1 routing_carIn28951:1" vType="default_016" speedFactor="0.97" vaporized=""/>
    <tripinfo id="h20540c1:1" depart="57634.00" departLane="10425609#0_1" departPos="5.10" departSpeed="0.00" departDelay="0.50" arrival="57716.00" arrivalLane="-653473569#5_1" arrivalPos="73.05" arrivalSpeed="11.84" duration="82.00" routeLength="312.95" waitingTime="29.00" waitingCount="4" stopTime="0.00" timeLoss="55.93" rerouteNo="1" devices="tripinfo_h20540c1:1 routing_h20540c1:1" vType="default_016" speedFactor="0.94" vaporized=""/>
    <tripinfo id="carIn12152:1" depart="57647.00" departLane="24599188#0.94_1" departPos="5.10" departSpeed="0.00" departDelay="0.50" arrival="57716.00" arrivalLane="24693977#1_1" arrivalPos="96.83" arrivalSpeed="10.73" duration="69.00" routeLength="511.77" waitingTime="1.00" waitingCount="1" stopTime="0.00" timeLoss="12.43" rerouteNo="1" devices="tripinfo_carIn12152:1 routing_carIn12152:1" vType="default_016" speedFactor="0.85" vaporized=""/>
    <tripinfo id="carIn22637:1" depart="57635.00" departLane="27920078#0_1" departPos="5.10" departSpeed="0.00" departDelay="2.50" arrival="57718.00" arrivalLane="-83304175#2_1" arrivalPos="189.34" arrivalSpeed="6.82" duration="83.00" routeLength="501.51" waitingTime="16.00" waitingCount="1" stopTime="0.00" timeLoss="33.02" rerouteNo="1" devices="tripinfo_carIn22637:1 routing_carIn22637:1" vType="default_016" speedFactor="0.95" vaporized=""/>
    <tripinfo id="h5292c2:1" depart="57656.00" departLane="-24693977#1_1" departPos="5.10" departSpeed="0.00" departDelay="0.00" arrival="57719.00" arrivalLane="-266565295#5_1" arrivalPos="172.76" arrivalSpeed="14.20" duration="63.00" routeLength="840.03" waitingTime="0.00" waitingCount="0" stopTime="0.00" timeLoss="7.13" rerouteNo="1" devices="tripinfo_h5292c2:1 routing_h5292c2:1" vType="default_016" speedFactor="1.10" vaporized=""/>
    <tripinfo id="carIn20106:1" depart="57630.00" departLane="27920078#0_1" departPos="5.10" departSpeed="0.00" departDelay="2.70" arrival="57720.00" arrivalLane="201956820_2" arrivalPos="48.33" arrivalSpeed="13.89" duration="90.00" routeLength="555.86" waitingTime="27.00" waitingCount="3" stopTime="0.00" timeLoss="50.70" rerouteNo="1" devices="tripinfo_carIn20106:1 routing_carIn20106:1" vType="default_016" speedFactor="1.04" vaporized=""/>
    <tripinfo id="carIn7887:1" depart="57661.00" departLane="27920078#0_1" departPos="5.10" departSpeed="0.00" departDelay="0.50" arrival="57720.00" arrivalLane="-83304175#2_1" arrivalPos="189.34" arrivalSpeed="7.34" duration="59.00" routeLength="501.51" waitingTime="0.00" waitingCount="0" stopTime="0.00" timeLoss="10.84" rerouteNo="1" devices="tripinfo_carIn7887:1 routing_carIn7887:1" vType="default_016" speedFactor="0.98" vaporized=""/>
    <tripinfo id="carIn13117:1" depart="57627.00" departLane="27920078#0_1" departPos="5.10" departSpeed="0.00" departDelay="1.80" arrival="57721.00" arrivalLane="201956820_1" arrivalPos="48.33" arrivalSpeed="14.61" duration="94.00" routeLength="552.44" waitingTime="32.00" waitingCount="3" stopTime="0.00" timeLoss="56.31" rerouteNo="1" devices="tripinfo_carIn13117:1 routing_carIn13117:1" vType="default_016" speedFactor="1.08" vaporized=""/>
    <tripinfo id="h3688c1:1" depart="57679.00" departLane="315358253#1_1" departPos="5.10" departSpeed="0.00" departDelay="0.50" arrival="57721.00" arrivalLane="32978638#0_1" arrivalPos="49.29" arrivalSpeed="13.37" duration="42.00" routeLength="405.15" waitingTime="0.00" waitingCount="0" stopTime="0.00" timeLoss="10.86" rerouteNo="1" devices="tripinfo_h3688c1:1 routing_h3688c1:1" vType="default_016" speedFactor="0.99" vaporized=""/>
    <tripinfo id="carIn73466:1" depart="57642.00" departLane="27920078#0_1" departPos="5.10" departSpeed="0.00" departDelay="5.10" arrival="57722.00" arrivalLane="201956811#0_1" arrivalPos="40.40" arrivalSpeed="11.65" duration="80.00" routeLength="432.03" waitingTime="9.00" waitingCount="2" stopTime="0.00" timeLoss="44.76" rerouteNo="1" devices="tripinfo_carIn73466:1 routing_carIn73466:1" vType="default_016" speedFactor="0.89" vaporized=""/>
    <tripinfo id="carIn77438:1" depart="57617.00" departLane="124812856#0_1" departPos="5.10" departSpeed="0.00" departDelay="4.10" arrival="57726.00" arrivalLane="-653473569#5_1" arrivalPos="73.05" arrivalSpeed="10.84" duration="109.00" routeLength="450.40" waitingTime="47.00" waitingCount="3" stopTime="0.00" timeLoss="67.28" rerouteNo="1" devices="tripinfo_carIn77438:1 routing_carIn77438:1" vType="default_016" speedFactor="0.80" vaporized=""/>
    <tripinfo id="h2215c1:1" depart="57657.00" departLane="25145012#7_1" departPos="5.10" departSpeed="0.00" departDelay="0.90" arrival="57726.00" arrivalLane="201956811#0_1" arrivalPos="40.40" arrivalSpeed="11.57" duration="69.00" routeLength="384.54" waitingTime="5.00" waitingCount="1" stopTime="0.00" timeLoss="34.09" rerouteNo="1" devices="tripinfo_h2215c1:1 routing_h2215c1:1" vType="default_016" speedFactor="0.85" vaporized=""/>
    <tripinfo id="h19804c1:3" depart="57621.00" departLane="124812856#0_1" departPos="5.10" departSpeed="0.00" departDelay="5.50" arrival="57728.00" arrivalLane="-653473569#5_1" arrivalPos="73.05" arrivalSpeed="13.23" duration="107.00" routeLength="450.40" waitingTime="42.00" waitingCount="2" stopTime="0.00" timeLoss="71.80" rerouteNo="1" devices="tripinfo_h19804c1:3 routing_h19804c1:3" vType="default_016" speedFactor="0.96" vaporized=""/>
    <tripinfo id="h21130c2:1" depart="57630.00" departLane="10425609#0_1" departPos="5.10" departSpeed="0.00" departDelay="0.10" arrival="57728.00" arrivalLane="202070434#2_1" arrivalPos="39.03" arrivalSpeed="14.91" duration="98.00" routeLength="432.30" waitingTime="42.00" waitingCount="4" stopTime="0.00" timeLoss="70.06" rerouteNo="1" devices="tripinfo_h21130c2:1 routing_h21130c2:1" vType="default_016" speedFactor="1.16" vaporized=""/>
    <tripinfo id="carIn102740:1" depart="57667.00" departLane="25145012#7_1" departPos="5.10" departSpeed="0.00" departDelay="0.00" arrival="57728.00" arrivalLane="201956811#0_1" arrivalPos="40.40" arrivalSpeed="10.47" duration="61.00" routeLength="384.54" waitingTime="7.00" waitingCount="2" stopTime="0.00" timeLoss="24.93" rerouteNo="1" devices="tripinfo_carIn102740:1 routing_carIn102740:1" vType="default_016" speedFactor="0.81" vaporized=""/>
    <tripinfo id="h3568c1:3" depart="57656.00" departLane="266565295#5_1" departPos="5.10" departSpeed="0.00" departDelay="0.80" arrival="57729.00" arrivalLane="-24634415_1" arrivalPos="64.03" arrivalSpeed="14.89" duration="73.00" routeLength="810.20" waitingTime="0.00" waitingCount="0" stopTime="0.00" timeLoss="13.40" rerouteNo="1" devices="tripinfo_h3568c1:3 routing_h3568c1:3" vType="default_016" speedFactor="1.11" vaporized=""/>
    <tripinfo id="carIn35345:1" depart="57670.00" departLane="25145012#7_1" departPos="5.10" departSpeed="0.00" departDelay="1.40" arrival="57730.00" arrivalLane="201956811#0_1" arrivalPos="40.40" arrivalSpeed="11.95" duration="60.00" routeLength="384.54" waitingTime="4.00" waitingCount="2" stopTime="0.00" timeLoss="27.34" rerouteNo="1" devices="tripinfo_carIn35345:1 routing_carIn35345:1" vType="default_016" speedFactor="0.89" vaporized=""/>
    <tripinfo id="carIn12775:1" depart="57676.00" departLane="10425609#0_1" departPos="5.10" departSpeed="0.00" departDelay="0.60" arrival="57730.00" arrivalLane="-653473569#5_1" arrivalPos="73.05" arrivalSpeed="12.75" duration="54.00" routeLength="312.95" waitingTime="10.00" waitingCount="2" stopTime="0.00" timeLoss="28.39" rerouteNo="1" devices="tripinfo_carIn12775:1 routing_carIn12775:1" vType="default_016" speedFactor="0.94" vaporized=""/>
    <tripinfo id="carIn26407:1" depart="57673.00" departLane="25145012#7_1" departPos="5.10" departSpeed="0.00" departDelay="0.50" arrival="57731.00" arrivalLane="201956811#0_1" arrivalPos="40.40" arrivalSpeed="13.50" duration="58.00" routeLength="384.54" waitingTime="2.00" waitingCount="2" stopTime="0.00" timeLoss="28.63" rerouteNo="1" devices="tripinfo_carIn26407:1 routing_carIn26407:1" vType="default_016" speedFactor="0.97" vaporized=""/>
    <tripinfo id="60.39" depart="57643.00" departLane="10425609#0_1" departPos="12.10" departSpeed="0.00" departDelay="0.50" arrival="57733.00" arrivalLane="202070434#2_1" arrivalPos="39.03" arrivalSpeed="12.75" duration="90.00" routeLength="425.30" waitingTime="26.00" waitingCount="4" stopTime="0.00" timeLoss="58.75" rerouteNo="1" devices="tripinfo_60.39 routing_60.39" vType="bus" speedFactor="1.00" vaporized=""/>
    <tripinfo id="carIn91254:1" depart="57696.00" departLane="653473569#5_1" departPos="5.10" departSpeed="0.00" departDelay="0.10" arrival="57733.00" arrivalLane="201956811#0_1" arrivalPos="40.40" arrivalSpeed="14.86" duration="37.00" routeLength="313.24" waitingTime="1.00" waitingCount="1" stopTime="0.00" timeLoss="16.02" rerouteNo="1" devices="tripinfo_carIn91254:1 routing_carIn91254:1" vType="default_016" speedFactor="1.14" vaporized=""/>
    <tripinfo id="h10915c2:1" depart="57626.00" departLane="315358253#1_1" departPos="5.10" departSpeed="0.00" departDelay="0.20" arrival="57741.00" arrivalLane="-653473569#5_1" arrivalPos="73.05" arrivalSpeed="14.75" duration="115.00" routeLength="970.09" waitingTime="25.00" waitingCount="3" stopTime="0.00" timeLoss="51.77" rerouteNo="1" devices="tripinfo_h10915c2:1 routing_h10915c2:1" vType="default_016" speedFactor="1.13" vaporized=""/>
    <tripinfo id="carIn106665:1" depart="57659.00" departLane="266565295#5_1" departPos="5.10" departSpeed="0.00" departDelay="1.80" arrival="57742.00" arrivalLane="24693977#1_1" arrivalPos="96.83" arrivalSpeed="10.99" duration="83.00" routeLength="834.40" waitingTime="0.00" waitingCount="0" stopTime="0.00" timeLoss="12.90" rerouteNo="1" devices="tripinfo_carIn106665:1 routing_carIn106665:1" vType="default_016" speedFactor="0.87" vaporized=""/>
    <tripinfo id="h317c2:1" depart="57707.00" departLane="-32978638#0_1" departPos="5.10" departSpeed="0.00" departDelay="0.10" arrival="57742.00" arrivalLane="-266565295#5_1" arrivalPos="172.76" arrivalSpeed="11.99" duration="35.00" routeLength="370.53" waitingTime="0.00" waitingCount="0" stopTime="0.00" timeLoss="5.71" rerouteNo="1" devices="tripinfo_h317c2:1 routing_h317c2:1" vType="default_016" speedFactor="0.95" vaporized=""/>
    <tripinfo id="carIn111853:1" depart="57632.00" departLane="27920078#0_1" departPos="5.10" departSpeed="0.00" departDelay="2.80" arrival="57745.00" arrivalLane="-266565295#5_1" arrivalPos="172.76" arrivalSpeed="14.85" duration="113.00" routeLength="1204.91" waitingTime="18.00" waitingCount="1" stopTime="0.00" timeLoss="32.27" rerouteNo="1" devices="tripinfo_carIn111853:1 routing_carIn111853:1" vType="default_016" speedFactor="1.08" vaporized=""/>
    <tripinfo id="carIn128705:1" depart="57625.00" departLane="124812856#0_1" departPos="5.10" departSpeed="0.00" departDelay="6.60" arrival="57746.00" arrivalLane="202070434#2_1" arrivalPos="39.03" arrivalSpeed="14.37" duration="121.00" routeLength="569.75" waitingTime="47.00" waitingCount="5" stopTime="0.00" timeLoss="83.24" rerouteNo="1" devices="tripinfo_carIn128705:1 routing_carIn128705:1" vType="default_016" speedFactor="1.09" vaporized=""/>
    <tripinfo id="randUni5403:1" depart="57632.00" departLane="315358253#1_1" departPos="5.10" departSpeed="0.00" departDelay="2.90" arrival="57746.00" arrivalLane="-653473569#5_1" arrivalPos="73.05" arrivalSpeed="11.96" duration="114.00" routeLength="970.09" waitingTime="16.00" waitingCount="2" stopTime="0.00" timeLoss="39.08" rerouteNo="1" devices="tripinfo_randUni5403:1 routing_randUni5403:1" vType="random_016" speedFactor="0.95" vaporized=""/>
    <tripinfo id="carIn26410:1" depart="57620.00" departLane="124812856#0_1" departPos="5.10" departSpeed="0.00" departDelay="6.50" arrival="57748.00" arrivalLane="202070434#2_2" arrivalPos="39.03" arrivalSpeed="14.42" duration="128.00" routeLength="569.75" waitingTime="53.00" waitingCount="4" stopTime="0.00" timeLoss="88.24" rerouteNo="1" devices="tripinfo_carIn26410:1 routing_carIn26410:1" vType="default_016" speedFactor="1.04" vaporized=""/>
    <tripinfo id="h18569c2:1" depart="57646.00" departLane="27920078#0_1" departPos="5.10" departSpeed="0.00" departDelay="6.00" arrival="57749.00" arrivalLane="-266565295#5_1" arrivalPos="172.76" arrivalSpeed="13.56" duration="103.00" routeLength="1199.37" waitingTime="5.00" waitingCount="1" stopTime="0.00" timeLoss="20.57" rerouteNo="1" devices="tripinfo_h18569c2:1 routing_h18569c2:1" vType="default_016" speedFactor="1.05" vaporized=""/>