<?xml version="1.0" encoding="UTF-8"?>

<!-- generated on 2025-04-21 21:15:48 by Eclipse SUMO sumo Version 1.22.0
<sumoConfiguration xmlns:xsi="http://www.w3.org/2001/XMLSchema-instance" xsi:noNamespaceSchemaLocation="http://sumo.dlr.de/xsd/sumoConfiguration.xsd">

    <input>
        <net-file value="/home/kalset1/Documents/cmu/robo/16831/project/RESCO/resco_benchmark/environments/ingolstadt7/ingolstadt7.net.xml"/>
        <route-files value="/home/kalset1/Documents/cmu/robo/16831/project/RESCO/resco_benchmark/environments/ingolstadt7/ingolstadt7.rou.xml"/>
    </input>

    <output>
        <tripinfo-output value="/home/kalset1/Documents/cmu/robo/16831/project/RESCO/results/IDQN-tr0-ingolstadt7-7-drq_norm-wait_norm/tripinfo_20.xml"/>
        <tripinfo-output.write-unfinished value="true"/>
    </output>

    <time>
        <begin value="57600"/>
        <end value="61200"/>
    </time>

    <processing>
        <time-to-teleport value="-1"/>
    </processing>

    <report>
        <no-warnings value="True"/>
        <no-step-log value="True"/>
    </report>

    <traci_server>
        <remote-port value="56431"/>
    </traci_server>

    <random_number>
        <random value="true"/>
    </random_number>

</sumoConfiguration>
-->

<tripinfos xmlns:xsi="http://www.w3.org/2001/XMLSchema-instance" xsi:noNamespaceSchemaLocation="http://sumo.dlr.de/xsd/tripinfo_file.xsd">
    <tripinfo id="carIn89578:1" depart="57614.00" departLane="124812856#0_1" departPos="5.10" departSpeed="0.00" departDelay="3.60" arrival="57631.00" arrivalLane="201956810_1" arrivalPos="71.65" arrivalSpeed="11.48" duration="17.00" routeLength="134.91" waitingTime="0.00" waitingCount="0" stopTime="0.00" timeLoss="4.71" rerouteNo="1" devices="tripinfo_carIn89578:1 routing_carIn89578:1" vType="default_016" speedFactor="0.87" vaporized=""/>
    <tripinfo id="carIn105842:1" depart="57601.00" departLane="653473569#5_1" departPos="5.10" departSpeed="0.00" departDelay="0.80" arrival="57632.00" arrivalLane="201956811#0_1" arrivalPos="40.40" arrivalSpeed="12.81" duration="31.00" routeLength="313.24" waitingTime="0.00" waitingCount="0" stopTime="0.00" timeLoss="7.17" rerouteNo="1" devices="tripinfo_carIn105842:1 routing_carIn105842:1" vType="default_016" speedFactor="1.01" vaporized=""/>
    <tripinfo id="carIn28951:1" depart="57606.00" departLane="10425609#0_1" departPos="5.10" departSpeed="0.00" departDelay="0.20" arrival="57645.00" arrivalLane="-653473569#5_1" arrivalPos="73.05" arrivalSpeed="13.18" duration="39.00" routeLength="312.95" waitingTime="3.00" waitingCount="1" stopTime="0.00" timeLoss="14.21" rerouteNo="1" devices="tripinfo_carIn28951:1 routing_carIn28951:1" vType="default_016" speedFactor="0.99" vaporized=""/>
    <tripinfo id="h20232c1:2" depart="57634.00" departLane="-173169611#0_1" departPos="5.10" departSpeed="0.00" departDelay="0.50" arrival="57650.00" arrivalLane="201956820_1" arrivalPos="48.33" arrivalSpeed="13.24" duration="16.00" routeLength="122.35" waitingTime="0.00" waitingCount="0" stopTime="0.00" timeLoss="6.07" rerouteNo="0" devices="tripinfo_h20232c1:2 routing_h20232c1:2" vType="default_016" speedFactor="0.99" vaporized=""/>
    <tripinfo id="h15454c2:3" depart="57612.00" departLane="24608844_1" departPos="5.10" departSpeed="0.00" departDelay="0.50" arrival="57656.00" arrivalLane="32978638#0_1" arrivalPos="49.29" arrivalSpeed="13.09" duration="44.00" routeLength="354.79" waitingTime="0.00" waitingCount="0" stopTime="0.00" timeLoss="9.08" rerouteNo="1" devices="tripinfo_h15454c2:3 routing_h15454c2:3" vType="default_016" speedFactor="0.99" vaporized=""/>
    <tripinfo id="h20540c1:1" depart="57634.00" departLane="10425609#0_1" departPos="5.10" departSpeed="0.00" departDelay="0.50" arrival="57663.00" arrivalLane="-653473569#5_1" arrivalPos="73.05" arrivalSpeed="15.45" duration="29.00" routeLength="312.95" waitingTime="0.00" waitingCount="0" stopTime="0.00" timeLoss="7.87" rerouteNo="1" devices="tripinfo_h20540c1:1 routing_h20540c1:1" vType="default_016" speedFactor="1.15" vaporized=""/>
    <tripinfo id="h645c1:1" depart="57622.00" departLane="266565295#5_1" departPos="5.10" departSpeed="0.00" departDelay="0.40" arrival="57666.00" arrivalLane="-315358253#1_1" arrivalPos="63.90" arrivalSpeed="15.25" duration="44.00" routeLength="547.76" waitingTime="0.00" waitingCount="0" stopTime="0.00" timeLoss="8.23" rerouteNo="1" devices="tripinfo_h645c1:1 routing_h645c1:1" vType="default_016" speedFactor="1.13" vaporized=""/>
    <tripinfo id="carIn25202:1" depart="57629.00" departLane="315358253#1_1" departPos="5.10" departSpeed="0.00" departDelay="1.50" arrival="57673.00" arrivalLane="32978638#0_1" arrivalPos="49.29" arrivalSpeed="11.87" duration="44.00" routeLength="405.15" waitingTime="0.00" waitingCount="0" stopTime="0.00" timeLoss="10.99" rerouteNo="1" devices="tripinfo_carIn25202:1 routing_carIn25202:1" vType="default_016" speedFactor="0.94" vaporized=""/>
    <tripinfo id="randUni10474:1" depart="57605.00" departLane="124812856#0_1" departPos="5.10" departSpeed="0.00" departDelay="0.20" arrival="57678.00" arrivalLane="-653473569#5_1" arrivalPos="73.05" arrivalSpeed="13.78" duration="73.00" routeLength="450.40" waitingTime="26.00" waitingCount="1" stopTime="0.00" timeLoss="41.25" rerouteNo="1" devices="tripinfo_randUni10474:1 routing_randUni10474:1" vType="random_016" speedFactor="1.06" vaporized=""/>
    <tripinfo id="carIn106322:1" depart="57614.00" departLane="653473569#5_1" departPos="5.10" departSpeed="0.00" departDelay="2.20" arrival="57678.00" arrivalLane="201956811#0_1" arrivalPos="40.40" arrivalSpeed="14.38" duration="64.00" routeLength="313.24" waitingTime="26.00" waitingCount="2" stopTime="0.00" timeLoss="41.83" rerouteNo="1" devices="tripinfo_carIn106322:1 routing_carIn106322:1" vType="default_016" speedFactor="1.12" vaporized=""/>
    <tripinfo id="h21130c2:1" depart="57630.00" departLane="10425609#0_1" departPos="5.10" departSpeed="0.00" departDelay="0.10" arrival="57678.00" arrivalLane="202070434#2_1" arrivalPos="39.03" arrivalSpeed="14.25" duration="48.00" routeLength="432.30" waitingTime="0.00" waitingCount="0" stopTime="0.00" timeLoss="17.22" rerouteNo="1" devices="tripinfo_h21130c2:1 routing_h21130c2:1" vType="default_016" speedFactor="1.04" vaporized=""/>
    <tripinfo id="carIn124416:1" depart="57663.00" departLane="-173169611#0_1" departPos="5.10" departSpeed="0.00" departDelay="0.50" arrival="57678.00" arrivalLane="201956820_1" arrivalPos="48.33" arrivalSpeed="11.98" duration="15.00" routeLength="122.35" waitingTime="0.00" waitingCount="0" stopTime="0.00" timeLoss="4.73" rerouteNo="0" devices="tripinfo_carIn124416:1 routing_carIn124416:1" vType="default_016" speedFactor="0.94" vaporized=""/>
    <tripinfo id="carIn5482:1" depart="57617.00" departLane="653473569#5_1" departPos="5.10" departSpeed="0.00" departDelay="3.60" arrival="57681.00" arrivalLane="201956811#0_1" arrivalPos="40.40" arrivalSpeed="11.47" duration="64.00" routeLength="313.24" waitingTime="19.00" waitingCount="2" stopTime="0.00" timeLoss="35.88" rerouteNo="1" devices="tripinfo_carIn5482:1 routing_carIn5482:1" vType="default_016" speedFactor="0.87" vaporized=""/>
    <tripinfo id="carIn55090:1" depart="57666.00" departLane="-173169611#0_1" departPos="5.10" departSpeed="0.00" departDelay="1.40" arrival="57681.00" arrivalLane="201956820_1" arrivalPos="48.33" arrivalSpeed="15.19" duration="15.00" routeLength="122.35" waitingTime="0.00" waitingCount="0" stopTime="0.00" timeLoss="5.77" rerouteNo="0" devices="tripinfo_carIn55090:1 routing_carIn55090:1" vType="default_016" speedFactor="1.12" vaporized=""/>
    <tripinfo id="carIn36103:1" depart="57620.00" departLane="653473569#5_1" departPos="5.10" departSpeed="0.00" departDelay="4.00" arrival="57682.00" arrivalLane="201956811#0_1" arrivalPos="40.40" arrivalSpeed="13.13" duration="62.00" routeLength="313.24" waitingTime="17.00" waitingCount="2" stopTime="0.00" timeLoss="40.85" rerouteNo="1" devices="tripinfo_carIn36103:1 routing_carIn36103:1" vType="default_016" speedFactor="1.14" vaporized=""/>
    <tripinfo id="carIn107084:1" depart="57601.00" departLane="124812856#0_1" departPos="5.10" departSpeed="0.00" departDelay="0.70" arrival="57684.00" arrivalLane="-653473569#5_1" arrivalPos="73.05" arrivalSpeed="13.04" duration="83.00" routeLength="450.40" waitingTime="24.00" waitingCount="1" stopTime="0.00" timeLoss="48.02" rerouteNo="1" devices="tripinfo_carIn107084:1 routing_carIn107084:1" vType="default_016" speedFactor="0.96" vaporized=""/>
    <tripinfo id="carIn102997:1" depart="57623.00" departLane="653473569#5_1" departPos="5.10" departSpeed="0.00" departDelay="4.80" arrival="57684.00" arrivalLane="201956811#0_1" arrivalPos="40.40" arrivalSpeed="11.96" duration="61.00" routeLength="313.24" waitingTime="14.00" waitingCount="2" stopTime="0.00" timeLoss="35.83" rerouteNo="1" devices="tripinfo_carIn102997:1 routing_carIn102997:1" vType="default_016" speedFactor="0.93" vaporized=""/>
    <tripinfo id="h19804c1:3" depart="57624.00" departLane="124812856#0_1" departPos="5.10" departSpeed="0.00" departDelay="8.50" arrival="57686.00" arrivalLane="-653473569#5_1" arrivalPos="73.05" arrivalSpeed="13.10" duration="62.00" routeLength="450.40" waitingTime="8.00" waitingCount="1" stopTime="0.00" timeLoss="29.08" rerouteNo="1" devices="tripinfo_h19804c1:3 routing_h19804c1:3" vType="default_016" speedFactor="1.03" vaporized=""/>
    <tripinfo id="carIn79400:1" depart="57604.00" departLane="-24693977#1_1" departPos="5.10" departSpeed="0.00" departDelay="0.10" arrival="57687.00" arrivalLane="-266565295#5_1" arrivalPos="172.76" arrivalSpeed="13.69" duration="83.00" routeLength="840.03" waitingTime="8.00" waitingCount="1" stopTime="0.00" timeLoss="22.27" rerouteNo="1" devices="tripinfo_carIn79400:1 routing_carIn79400:1" vType="default_016" speedFactor="1.02" vaporized=""/>
    <tripinfo id="carIn33538:1" depart="57671.00" departLane="37386279_1" departPos="5.10" departSpeed="0.00" departDelay="0.30" arrival="57687.00" arrivalLane="-24634414#4_1" arrivalPos="22.88" arrivalSpeed="6.64" duration="16.00" routeLength="125.23" waitingTime="0.00" waitingCount="0" stopTime="0.00" timeLoss="4.28" rerouteNo="0" devices="tripinfo_carIn33538:1 routing_carIn33538:1" vType="default_016" speedFactor="0.94" vaporized=""/>
    <tripinfo id="carIn77943:1" depart="57608.00" departLane="124812856#0_1" departPos="5.10" departSpeed="0.00" departDelay="2.50" arrival="57688.00" arrivalLane="-653473569#5_1" arrivalPos="73.05" arrivalSpeed="17.08" duration="80.00" routeLength="450.40" waitingTime="24.00" waitingCount="1" stopTime="0.00" timeLoss="53.02" rerouteNo="1" devices="tripinfo_carIn77943:1 routing_carIn77943:1" vType="default_016" speedFactor="1.27" vaporized=""/>
    <tripinfo id="carIn113711:1" depart="57601.00" departLane="-24693977#1_1" departPos="5.10" departSpeed="0.00" departDelay="0.70" arrival="57689.00" arrivalLane="-266565295#5_1" arrivalPos="172.76" arrivalSpeed="12.41" duration="88.00" routeLength="840.03" waitingTime="5.00" waitingCount="1" stopTime="0.00" timeLoss="19.29" rerouteNo="1" devices="tripinfo_carIn113711:1 routing_carIn113711:1" vType="default_016" speedFactor="0.90" vaporized=""/>
    <tripinfo id="carIn81046:1" depart="57611.00" departLane="124812856#0_1" departPos="5.10" departSpeed="0.00" departDelay="2.50" arrival="57694.00" arrivalLane="-653473569#5_1" arrivalPos="73.05" arrivalSpeed="13.38" duration="83.00" routeLength="450.40" waitingTime="22.00" waitingCount="1" stopTime="0.00" timeLoss="49.50" rerouteNo="1" devices="tripinfo_carIn81046:1 routing_carIn81046:1" vType="default_016" speedFactor="0.99" vaporized=""/>
    <tripinfo id="carIn115641:1" depart="57614.00" departLane="-24693977#1_1" departPos="5.10" departSpeed="0.00" departDelay="0.90" arrival="57694.00" arrivalLane="-266565295#5_1" arrivalPos="172.76" arrivalSpeed="15.65" duration="80.00" routeLength="840.03" waitingTime="14.00" waitingCount="1" stopTime="0.00" timeLoss="26.52" rerouteNo="1" devices="tripinfo_carIn115641:1 routing_carIn115641:1" vType="default_016" speedFactor="1.15" vaporized=""/>
    <tripinfo id="carIn77438:1" depart="57618.00" departLane="124812856#0_1" departPos="5.10" departSpeed="0.00" departDelay="5.10" arrival="57697.00" arrivalLane="-653473569#5_1" arrivalPos="73.05" arrivalSpeed="12.82" duration="79.00" routeLength="450.40" waitingTime="22.00" waitingCount="1" stopTime="0.00" timeLoss="44.46" rerouteNo="1" devices="tripinfo_carIn77438:1 routing_carIn77438:1" vType="default_016" speedFactor="0.98" vaporized=""/>
    <tripinfo id="carIn10158:1" depart="57622.00" departLane="-24693977#1_1" departPos="5.10" departSpeed="0.00" departDelay="0.80" arrival="57699.00" arrivalLane="-266565295#5_1" arrivalPos="172.76" arrivalSpeed="15.90" duration="77.00" routeLength="840.03" waitingTime="10.00" waitingCount="1" stopTime="0.00" timeLoss="24.24" rerouteNo="1" devices="tripinfo_carIn10158:1 routing_carIn10158:1" vType="default_016" speedFactor="1.18" vaporized=""/>
    <tripinfo id="carIn28488:1" depart="57611.00" departLane="653473569#5_1" departPos="5.10" departSpeed="0.00" departDelay="0.80" arrival="57700.00" arrivalLane="201956820_1" arrivalPos="48.33" arrivalSpeed="11.89" duration="89.00" routeLength="437.07" waitingTime="37.00" waitingCount="2" stopTime="0.00" timeLoss="53.59" rerouteNo="1" devices="tripinfo_carIn28488:1 routing_carIn28488:1" vType="default_016" speedFactor="0.91" vaporized=""/>
    <tripinfo id="carIn55461:1" depart="57652.00" departLane="10425609#0_1" departPos="5.10" departSpeed="0.00" departDelay="0.30" arrival="57704.00" arrivalLane="201956810_1" arrivalPos="71.65" arrivalSpeed="13.63" duration="52.00" routeLength="255.78" waitingTime="18.00" waitingCount="1" stopTime="0.00" timeLoss="32.26" rerouteNo="1" devices="tripinfo_carIn55461:1 routing_carIn55461:1" vType="default_016" speedFactor="0.99" vaporized=""/>
    <tripinfo id="carIn114137:1" depart="57635.00" departLane="27920078#0_1" departPos="5.10" departSpeed="0.00" departDelay="4.10" arrival="57706.00" arrivalLane="-83304175#2_1" arrivalPos="189.34" arrivalSpeed="7.89" duration="71.00" routeLength="501.51" waitingTime="5.00" waitingCount="1" stopTime="0.00" timeLoss="22.50" rerouteNo="1" devices="tripinfo_carIn114137:1 routing_carIn114137:1" vType="default_016" speedFactor="0.98" vaporized=""/>
    <tripinfo id="carIn925:1" depart="57653.00" departLane="124812856#0_1" departPos="5.10" departSpeed="0.00" departDelay="26.90" arrival="57707.00" arrivalLane="201956810_1" arrivalPos="71.65" arrivalSpeed="13.23" duration="54.00" routeLength="134.91" waitingTime="23.00" waitingCount="2" stopTime="0.00" timeLoss="42.87" rerouteNo="1" devices="tripinfo_carIn925:1 routing_carIn925:1" vType="default_016" speedFactor="0.99" vaporized=""/>
    <tripinfo id="carIn12152:1" depart="57647.00" departLane="24599188#0.94_1" departPos="5.10" departSpeed="0.00" departDelay="0.50" arrival="57708.00" arrivalLane="24693977#1_1" arrivalPos="96.83" arrivalSpeed="14.71" duration="61.00" routeLength="511.77" waitingTime="1.00" waitingCount="1" stopTime="0.00" timeLoss="17.76" rerouteNo="1" devices="tripinfo_carIn12152:1 routing_carIn12152:1" vType="default_016" speedFactor="1.11" vaporized=""/>
    <tripinfo id="carIn22637:1" depart="57636.00" departLane="27920078#0_1" departPos="5.10" departSpeed="0.00" departDelay="3.50" arrival="57710.00" arrivalLane="-83304175#2_1" arrivalPos="189.34" arrivalSpeed="7.44" duration="74.00" routeLength="501.51" waitingTime="7.00" waitingCount="2" stopTime="0.00" timeLoss="22.58" rerouteNo="1" devices="tripinfo_carIn22637:1 routing_carIn22637:1" vType="default_016" speedFactor="0.92" vaporized=""/>
    <tripinfo id="carIn131078:1" depart="57677.00" departLane="124812856#0_1" departPos="5.10" departSpeed="0.00" departDelay="41.60" arrival="57711.00" arrivalLane="201956810_1" arrivalPos="71.65" arrivalSpeed="11.51" duration="34.00" routeLength="134.91" waitingTime="10.00" waitingCount="1" stopTime="0.00" timeLoss="21.34" rerouteNo="1" devices="tripinfo_carIn131078:1 routing_carIn131078:1" vType="default_016" speedFactor="0.86" vaporized=""/>
    <tripinfo id="carIn26410:1" depart="57621.00" departLane="124812856#0_1" departPos="5.10" departSpeed="0.00" departDelay="7.50" arrival="57718.00" arrivalLane="202070434#2_2" arrivalPos="39.03" arrivalSpeed="13.82" duration="97.00" routeLength="569.75" waitingTime="24.00" waitingCount="3" stopTime="0.00" timeLoss="57.22" rerouteNo="1" devices="tripinfo_carIn26410:1 routing_carIn26410:1" vType="default_016" speedFactor="1.04" vaporized=""/>
    <tripinfo id="carIn52610:1" depart="57615.00" departLane="-24693977#1_1" departPos="5.10" departSpeed="0.00" departDelay="0.10" arrival="57718.00" arrivalLane="-266565295#5_1" arrivalPos="172.76" arrivalSpeed="13.10" duration="103.00" routeLength="840.03" waitingTime="17.00" waitingCount="2" stopTime="0.00" timeLoss="38.62" rerouteNo="1" devices="tripinfo_carIn52610:1 routing_carIn52610:1" vType="default_016" speedFactor="0.95" vaporized=""/>
    <tripinfo id="carIn75554:1" depart="57626.00" departLane="653473569#5_1" departPos="5.10" departSpeed="0.00" departDelay="5.20" arrival="57718.00" arrivalLane="201956811#0_1" arrivalPos="40.40" arrivalSpeed="13.14" duration="92.00" routeLength="313.24" waitingTime="40.00" waitingCount="4" stopTime="0.00" timeLoss="67.95" rerouteNo="1" devices="tripinfo_carIn75554:1 routing_carIn75554:1" vType="default_016" speedFactor="1.02" vaporized=""/>
    <tripinfo id="carIn96537:1" depart="57615.00" departLane="124812856#0_1" departPos="5.10" departSpeed="0.00" departDelay="3.80" arrival="57719.00" arrivalLane="202070434#2_1" arrivalPos="39.03" arrivalSpeed="12.11" duration="104.00" routeLength="569.75" waitingTime="37.00" waitingCount="3" stopTime="0.00" timeLoss="59.26" rerouteNo="1" devices="tripinfo_carIn96537:1 routing_carIn96537:1" vType="default_016" speedFactor="0.94" vaporized=""/>
    <tripinfo id="carIn51024:1" depart="57627.00" departLane="124812856#0_1" departPos="5.10" departSpeed="0.00" departDelay="10.90" arrival="57720.00" arrivalLane="202070434#2_2" arrivalPos="39.03" arrivalSpeed="14.59" duration="93.00" routeLength="569.75" waitingTime="15.00" waitingCount="2" stopTime="0.00" timeLoss="55.36" rerouteNo="1" devices="tripinfo_carIn51024:1 routing_carIn51024:1" vType="default_016" speedFactor="1.11" vaporized=""/>
    <tripinfo id="carIn767:1" depart="57633.00" departLane="124812856#0_1" departPos="5.10" departSpeed="0.00" departDelay="14.50" arrival="57720.00" arrivalLane="-653473569#5_1" arrivalPos="73.05" arrivalSpeed="15.02" duration="87.00" routeLength="450.40" waitingTime="30.00" waitingCount="3" stopTime="0.00" timeLoss="56.55" rerouteNo="1" devices="tripinfo_carIn767:1 routing_carIn767:1" vType="default_016" speedFactor="1.12" vaporized=""/>
    <tripinfo id="randUni20090:1" depart="57629.00" departLane="653473569#5_1" departPos="5.10" departSpeed="0.00" departDelay="1.00" arrival="57720.00" arrivalLane="201956811#0_1" arrivalPos="40.40" arrivalSpeed="12.59" duration="91.00" routeLength="313.24" waitingTime="35.00" waitingCount="4" stopTime="0.00" timeLoss="65.46" rerouteNo="1" devices="tripinfo_randUni20090:1 routing_randUni20090:1" vType="random_016" speedFactor="0.95" vaporized=""/>
    <tripinfo id="carIn128705:1" depart="57630.00" departLane="124812856#0_1" departPos="5.10" departSpeed="0.00" departDelay="11.60" arrival="57721.00" arrivalLane="202070434#2_1" arrivalPos="39.03" arrivalSpeed="13.13" duration="91.00" routeLength="569.75" waitingTime="16.00" waitingCount="2" stopTime="0.00" timeLoss="50.45" rerouteNo="1" devices="tripinfo_carIn128705:1 routing_carIn128705:1" vType="default_016" speedFactor="1.01" vaporized=""/>
    <tripinfo id="carIn48979:1" depart="57660.00" departLane="124812856#0_1" departPos="5.10" departSpeed="0.00" departDelay="31.10" arrival="57721.00" arrivalLane="-653473569#5_1" arrivalPos="73.05" arrivalSpeed="15.35" duration="61.00" routeLength="450.40" waitingTime="12.00" waitingCount="2" stopTime="0.00" timeLoss="32.03" rerouteNo="1" devices="tripinfo_carIn48979:1 routing_carIn48979:1" vType="default_016" speedFactor="1.15" vaporized=""/>
    <tripinfo id="h5292c2:1" depart="57656.00" departLane="-24693977#1_1" departPos="5.10" departSpeed="0.00" departDelay="0.00" arrival="57722.00" arrivalLane="-266565295#5_1" arrivalPos="172.76" arrivalSpeed="14.33" duration="66.00" routeLength="840.03" waitingTime="0.00" waitingCount="0" stopTime="0.00" timeLoss="7.31" rerouteNo="1" devices="tripinfo_h5292c2:1 routing_h5292c2:1" vType="default_016" speedFactor="1.05" vaporized=""/>
    <tripinfo id="h21989c1:1" depart="57636.00" departLane="124812856#0_1" departPos="5.10" departSpeed="0.00" departDelay="15.60" arrival="57724.00" arrivalLane="202070434#2_1" arrivalPos="39.03" arrivalSpeed="10.86" duration="88.00" routeLength="569.75" waitingTime="16.00" waitingCount="2" stopTime="0.00" timeLoss="40.69" rerouteNo="1" devices="tripinfo_h21989c1:1 routing_h21989c1:1" vType="default_016" speedFactor="0.87" vaporized=""/>
    <tripinfo id="carIn38625:1" depart="57651.00" departLane="124812856#0_1" departPos="5.10" departSpeed="0.00" departDelay="25.50" arrival="57724.00" arrivalLane="-653473569#5_1" arrivalPos="73.05" arrivalSpeed="14.45" duration="73.00" routeLength="450.40" waitingTime="13.00" waitingCount="3" stopTime="0.00" timeLoss="42.80" rerouteNo="1" devices="tripinfo_carIn38625:1 routing_carIn38625:1" vType="default_016" speedFactor="1.12" vaporized=""/>
    <tripinfo id="60R.41" depart="57623.00" departLane="27920078#0_1" departPos="12.10" departSpeed="0.00" departDelay="0.30" arrival="57725.00" arrivalLane="201956811#0_1" arrivalPos="40.40" arrivalSpeed="11.50" duration="102.00" routeLength="425.03" waitingTime="28.00" waitingCount="3" stopTime="0.00" timeLoss="70.64" rerouteNo="1" devices="tripinfo_60R.41 routing_60R.41" vType="bus" speedFactor="1.00" vaporized=""/>
    <tripinfo id="60.39" depart="57643.00" departLane="10425609#0_1" departPos="12.10" departSpeed="0.00" departDelay="0.50" arrival="57725.00" arrivalLane="202070434#2_2" arrivalPos="39.03" arrivalSpeed="9.59" duration="82.00" routeLength="425.30" waitingTime="25.00" waitingCount="1" stopTime="0.00" timeLoss="50.22" rerouteNo="1" devices="tripinfo_60.39 routing_60.39" vType="bus" speedFactor="1.00" vaporized=""/>
    <tripinfo id="carIn12900:1" depart="57706.00" departLane="124812856#0_1" departPos="5.10" departSpeed="0.00" departDelay="57.80" arrival="57725.00" arrivalLane="201956810_1" arrivalPos="71.65" arrivalSpeed="12.72" duration="19.00" routeLength="134.91" waitingTime="0.00" waitingCount="0" stopTime="0.00" timeLoss="7.09" rerouteNo="1" devices="tripinfo_carIn12900:1 routing_carIn12900:1" vType="default_016" speedFactor="0.93" vaporized=""/>
    <tripinfo id="carIn64859:1" depart="57657.00" departLane="124812856#0_1" departPos="5.10" departSpeed="0.00" departDelay="28.60" arrival="57726.00" arrivalLane="-653473569#5_1" arrivalPos="73.05" arrivalSpeed="14.12" duration="69.00" routeLength="450.40" waitingTime="12.00" waitingCount="2" stopTime="0.00" timeLoss="37.32" rerouteNo="1" devices="tripinfo_carIn64859:1 routing_carIn64859:1" vType="default_016" speedFactor="1.07" vaporized=""/>
    <tripinfo id="h10915c2:1" depart="57626.00" departLane="315358253#1_1" departPos="5.10" departSpeed="0.00" departDelay="0.20" arrival="57730.00" arrivalLane="-653473569#5_1" arrivalPos="73.05" arrivalSpeed="15.15" duration="104.00" routeLength="970.09" waitingTime="11.00" waitingCount="3" stopTime="0.00" timeLoss="39.05" rerouteNo="1" devices="tripinfo_h10915c2:1 routing_h10915c2:1" vType="default_016" speedFactor="1.10" vaporized=""/>
    <tripinfo id="h3688c1:1" depart="57679.00" departLane="315358253#1_1" departPos="5.10" departSpeed="0.00" departDelay="0.50" arrival="57731.00" arrivalLane="32978638#0_1" arrivalPos="49.29" arrivalSpeed="11.84" duration="52.00" routeLength="405.15" waitingTime="6.00" waitingCount="1" stopTime="0.00" timeLoss="16.80" rerouteNo="1" devices="tripinfo_h3688c1:1 routing_h3688c1:1" vType="default_016" speedFactor="0.87" vaporized=""/>
    <tripinfo id="carIn107842:1" depart="57639.00" departLane="124812856#0_1" departPos="5.10" departSpeed="0.00" departDelay="17.90" arrival="57734.00" arrivalLane="-653473569#5_1" arrivalPos="73.05" arrivalSpeed="10.46" duration="95.00" routeLength="450.40" waitingTime="22.00" waitingCount="4" stopTime="0.00" timeLoss="53.16" rerouteNo="1" devices="tripinfo_carIn107842:1 routing_carIn107842:1" vType="default_016" speedFactor="0.80" vaporized=""/>
    <tripinfo id="h317c2:1" depart="57707.00" departLane="-32978638#0_1" departPos="5.10" departSpeed="0.00" departDelay="0.10" arrival="57738.00" arrivalLane="-266565295#5_1" arrivalPos="172.76" arrivalSpeed="15.14" duration="31.00" routeLength="370.53" waitingTime="0.00" waitingCount="0" stopTime="0.00" timeLoss="6.59" rerouteNo="1" devices="tripinfo_h317c2:1 routing_h317c2:1" vType="default_016" speedFactor="1.12" vaporized=""/>
    <tripinfo id="carIn37268:1" depart="57636.00" departLane="653473569#5_1" departPos="5.10" departSpeed="0.00" departDelay="0.90" arrival="57739.00" arrivalLane="201956811#0_1" arrivalPos="40.40" arrivalSpeed="13.75" duration="103.00" routeLength="313.24" waitingTime="33.00" waitingCount="4" stopTime="0.00" timeLoss="81.15" rerouteNo="1" devices="tripinfo_carIn37268:1 routing_carIn37268:1" vType="default_016" speedFactor="1.08" vaporized=""/>
    <tripinfo id="carIn7887:1" depart="57661.00" departLane="27920078#0_1" departPos="5.10" departSpeed="0.00" departDelay="0.50" arrival="57739.00" arrivalLane="-83304175#2_1" arrivalPos="189.34" arrivalSpeed="6.88" duration="78.00" routeLength="501.51" waitingTime="10.00" waitingCount="1" stopTime="0.00" timeLoss="22.41" rerouteNo="1" devices="tripinfo_carIn7887:1 routing_carIn7887:1" vType="default_016" speedFactor="0.85" vaporized=""/>
    <tripinfo id="carIn13117:1" depart="57628.00" departLane="27920078#0_1" departPos="5.10" departSpeed="0.00" departDelay="2.80" arrival="57740.00" arrivalLane="201956820_1" arrivalPos="48.33" arrivalSpeed="14.45" duration="112.00" routeLength="552.44" waitingTime="53.00" waitingCount="3" stopTime="0.00" timeLoss="77.50" rerouteNo="1" devices="tripinfo_carIn13117:1 routing_carIn13117:1" vType="default_016" speedFactor="1.16" vaporized=""/>
    <tripinfo id="carIn3969:1" depart="57645.00" departLane="124812856#0_1" departPos="5.10" departSpeed="0.00" departDelay="21.30" arrival="57742.00" arrivalLane="-653473569#5_1" arrivalPos="73.05" arrivalSpeed="12.36" duration="97.00" routeLength="450.40" waitingTime="16.00" waitingCount="5" stopTime="0.00" timeLoss="62.72" rerouteNo="1" devices="tripinfo_carIn3969:1 routing_carIn3969:1" vType="default_016" speedFactor="0.98" vaporized=""/>
    <tripinfo id="carIn129760:1" depart="57661.00" departLane="653473569#5_1" departPos="5.10" departSpeed="0.00" departDelay="0.80" arrival="57742.00" arrivalLane="201956811#0_1" arrivalPos="40.40" arrivalSpeed="12.73" duration="81.00" routeLength="313.24" waitingTime="28.00" waitingCount="4" stopTime="0.00" timeLoss="54.94" rerouteNo="1" devices="tripinfo_carIn129760:1 routing_carIn129760:1" vType="default_016" speedFactor="0.93" vaporized=""/>
    <tripinfo id="carIn20106:1" depart="57631.00" departLane="27920078#0_1" departPos="5.10" departSpeed="0.00" departDelay="3.70" arrival="57743.00" arrivalLane="201956820_1" arrivalPos="48.33" arrivalSpeed="10.70" duration="112.00" routeLength="552.44" waitingTime="42.00" waitingCount="3" stopTime="0.00" timeLoss="64.07" rerouteNo="1" devices="tripinfo_carIn20106:1 routing_carIn20106:1" vType="default_016" speedFactor="0.84" vaporized=""/>
    <tripinfo id="carIn129626:1" depart="57664.00" departLane="653473569#5_1" departPos="5.10" departSpeed="0.00" departDelay="1.60" arrival="57743.00" arrivalLane="201956811#0_1" arrivalPos="40.40" arrivalSpeed="13.63" duration="79.00" routeLength="313.24" waitingTime="21.00" waitingCount="5" stopTime="0.00" timeLoss="55.23" rerouteNo="1" devices="tripinfo_carIn129626:1 routing_carIn129626:1" vType="default_016" speedFactor="0.99" vaporized=""/>
    <tripinfo id="h15382c1:3" depart="57642.00" departLane="124812856#0_1" departPos="5.10" departSpeed="0.00" departDelay="19.80" arrival="57744.00" arrivalLane="-653473569#5_1" arrivalPos="73.05" arrivalSpeed="13.47" duration="102.00" routeLength="450.40" waitingTime="18.00" waitingCount="4" stopTime="0.00" timeLoss="68.56" rerouteNo="1" devices="tripinfo_h15382c1:3 routing_h15382c1:3" vType="default_016" speedFactor="1.02" vaporized=""/>
    <tripinfo id="carIn56649:1" depart="57648.00" departLane="124812856#0_1" departPos="5.10" departSpeed="0.00" departDelay="24.10" arrival="57745.00" arrivalLane="-653473569#5_1" arrivalPos="73.05" arrivalSpeed="12.79" duration="97.00" routeLength="450.40" waitingTime="16.00" waitingCount="4" stopTime="0.00" timeLoss="64.06" rerouteNo="1" devices="tripinfo_carIn56649:1 routing_carIn56649:1" vType="default_016" speedFactor="1.00" vaporized=""/>
    <tripinfo id="h20539c1:3" depart="57667.00" departLane="653473569#5_1" departPos="5.10" departSpeed="0.00" departDelay="2.20" arrival="57746.00" arrivalLane="201956811#0_1" arrivalPos="40.40" arrivalSpeed="12.72" duration="79.00" routeLength="313.24" waitingTime="16.00" waitingCount="5" stopTime="0.00" timeLoss="54.41" rerouteNo="1" devices="tripinfo_h20539c1:3 routing_h20539c1:3" vType="default_016" speedFactor="1.00" vaporized=""/>
    <tripinfo id="carIn17767:1" depart="57654.00" departLane="124812856#0_1" departPos="5.10" departSpeed="0.00" departDelay="26.80" arrival="57748.00" arrivalLane="-653473569#5_1" arrivalPos="73.05" arrivalSpeed="12.96" duration="94.00" routeLength="450.40" waitingTime="7.00" waitingCount="3" stopTime="0.00" timeLoss="58.34" rerouteNo="1" devices="tripinfo_carIn17767:1 routing_carIn17767:1" vType="default_016" speedFactor="0.94" vaporized=""/>