<?xml version="1.0" encoding="UTF-8"?>

<!-- generated on 2025-04-21 21:32:12 by Eclipse SUMO sumo Version 1.22.0
<sumoConfiguration xmlns:xsi="http://www.w3.org/2001/XMLSchema-instance" xsi:noNamespaceSchemaLocation="http://sumo.dlr.de/xsd/sumoConfiguration.xsd">

    <input>
        <net-file value="/home/kalset1/Documents/cmu/robo/16831/project/RESCO/resco_benchmark/environments/ingolstadt7/ingolstadt7.net.xml"/>
        <route-files value="/home/kalset1/Documents/cmu/robo/16831/project/RESCO/resco_benchmark/environments/ingolstadt7/ingolstadt7.rou.xml"/>
    </input>

    <output>
        <tripinfo-output value="/home/kalset1/Documents/cmu/robo/16831/project/RESCO/results/IDQN-tr0-ingolstadt7-7-drq_norm-wait_norm/tripinfo_83.xml"/>
        <tripinfo-output.write-unfinished value="true"/>
    </output>

    <time>
        <begin value="57600"/>
        <end value="61200"/>
    </time>

    <processing>
        <time-to-teleport value="-1"/>
    </processing>

    <report>
        <no-warnings value="True"/>
        <no-step-log value="True"/>
    </report>

    <traci_server>
        <remote-port value="38177"/>
    </traci_server>

    <random_number>
        <random value="true"/>
    </random_number>

</sumoConfiguration>
-->

<tripinfos xmlns:xsi="http://www.w3.org/2001/XMLSchema-instance" xsi:noNamespaceSchemaLocation="http://sumo.dlr.de/xsd/tripinfo_file.xsd">
    <tripinfo id="carIn105842:1" depart="57601.00" departLane="653473569#5_1" departPos="5.10" departSpeed="0.00" departDelay="0.80" arrival="57629.00" arrivalLane="201956811#0_1" arrivalPos="40.40" arrivalSpeed="15.01" duration="28.00" routeLength="313.24" waitingTime="0.00" waitingCount="0" stopTime="0.00" timeLoss="7.21" rerouteNo="1" devices="tripinfo_carIn105842:1 routing_carIn105842:1" vType="default_016" speedFactor="1.13" vaporized=""/>
    <tripinfo id="h20232c1:2" depart="57634.00" departLane="-173169611#0_1" departPos="5.10" departSpeed="0.00" departDelay="0.50" arrival="57650.00" arrivalLane="201956820_1" arrivalPos="48.33" arrivalSpeed="12.53" duration="16.00" routeLength="122.35" waitingTime="0.00" waitingCount="0" stopTime="0.00" timeLoss="5.15" rerouteNo="0" devices="tripinfo_h20232c1:2 routing_h20232c1:2" vType="default_016" speedFactor="0.92" vaporized=""/>
    <tripinfo id="carIn106322:1" depart="57614.00" departLane="653473569#5_1" departPos="5.10" departSpeed="0.00" departDelay="2.20" arrival="57651.00" arrivalLane="201956811#0_1" arrivalPos="40.40" arrivalSpeed="10.77" duration="37.00" routeLength="313.24" waitingTime="0.00" waitingCount="0" stopTime="0.00" timeLoss="9.04" rerouteNo="1" devices="tripinfo_carIn106322:1 routing_carIn106322:1" vType="default_016" speedFactor="0.85" vaporized=""/>
    <tripinfo id="carIn5482:1" depart="57617.00" departLane="653473569#5_1" departPos="5.10" departSpeed="0.00" departDelay="3.60" arrival="57653.00" arrivalLane="201956811#0_1" arrivalPos="40.40" arrivalSpeed="12.26" duration="36.00" routeLength="313.24" waitingTime="0.00" waitingCount="0" stopTime="0.00" timeLoss="10.22" rerouteNo="1" devices="tripinfo_carIn5482:1 routing_carIn5482:1" vType="default_016" speedFactor="0.94" vaporized=""/>
    <tripinfo id="carIn28951:1" depart="57606.00" departLane="10425609#0_1" departPos="5.10" departSpeed="0.00" departDelay="0.20" arrival="57655.00" arrivalLane="-653473569#5_1" arrivalPos="73.05" arrivalSpeed="13.39" duration="49.00" routeLength="312.95" waitingTime="14.00" waitingCount="1" stopTime="0.00" timeLoss="23.87" rerouteNo="1" devices="tripinfo_carIn28951:1 routing_carIn28951:1" vType="default_016" speedFactor="0.98" vaporized=""/>
    <tripinfo id="carIn36103:1" depart="57620.00" departLane="653473569#5_1" departPos="5.10" departSpeed="0.00" departDelay="4.00" arrival="57655.00" arrivalLane="201956811#0_1" arrivalPos="40.40" arrivalSpeed="12.47" duration="35.00" routeLength="313.24" waitingTime="0.00" waitingCount="0" stopTime="0.00" timeLoss="9.35" rerouteNo="1" devices="tripinfo_carIn36103:1 routing_carIn36103:1" vType="default_016" speedFactor="0.94" vaporized=""/>
    <tripinfo id="carIn28488:1" depart="57611.00" departLane="653473569#5_1" departPos="5.10" departSpeed="0.00" departDelay="0.80" arrival="57659.00" arrivalLane="201956820_1" arrivalPos="48.33" arrivalSpeed="14.85" duration="48.00" routeLength="437.07" waitingTime="4.00" waitingCount="1" stopTime="0.00" timeLoss="17.69" rerouteNo="1" devices="tripinfo_carIn28488:1 routing_carIn28488:1" vType="default_016" speedFactor="1.08" vaporized=""/>
    <tripinfo id="h15454c2:3" depart="57612.00" departLane="24608844_1" departPos="5.10" departSpeed="0.00" departDelay="0.50" arrival="57665.00" arrivalLane="32978638#0_1" arrivalPos="49.29" arrivalSpeed="12.96" duration="53.00" routeLength="354.79" waitingTime="2.00" waitingCount="1" stopTime="0.00" timeLoss="16.24" rerouteNo="1" devices="tripinfo_h15454c2:3 routing_h15454c2:3" vType="default_016" speedFactor="0.94" vaporized=""/>
    <tripinfo id="h645c1:1" depart="57622.00" departLane="266565295#5_1" departPos="5.10" departSpeed="0.00" departDelay="0.40" arrival="57665.00" arrivalLane="-315358253#1_1" arrivalPos="63.90" arrivalSpeed="15.42" duration="43.00" routeLength="547.76" waitingTime="0.00" waitingCount="0" stopTime="0.00" timeLoss="7.24" rerouteNo="1" devices="tripinfo_h645c1:1 routing_h645c1:1" vType="default_016" speedFactor="1.15" vaporized=""/>
    <tripinfo id="carIn89578:1" depart="57612.00" departLane="124812856#0_1" departPos="5.10" departSpeed="0.00" departDelay="1.60" arrival="57668.00" arrivalLane="201956810_1" arrivalPos="71.65" arrivalSpeed="11.07" duration="56.00" routeLength="134.91" waitingTime="34.00" waitingCount="1" stopTime="0.00" timeLoss="43.97" rerouteNo="1" devices="tripinfo_carIn89578:1 routing_carIn89578:1" vType="default_016" speedFactor="0.88" vaporized=""/>
    <tripinfo id="carIn79400:1" depart="57604.00" departLane="-24693977#1_1" departPos="5.10" departSpeed="0.00" departDelay="0.10" arrival="57670.00" arrivalLane="-266565295#5_1" arrivalPos="172.76" arrivalSpeed="14.65" duration="66.00" routeLength="840.03" waitingTime="0.00" waitingCount="0" stopTime="0.00" timeLoss="7.77" rerouteNo="1" devices="tripinfo_carIn79400:1 routing_carIn79400:1" vType="default_016" speedFactor="1.06" vaporized=""/>
    <tripinfo id="carIn113711:1" depart="57601.00" departLane="-24693977#1_1" departPos="5.10" departSpeed="0.00" departDelay="0.70" arrival="57672.00" arrivalLane="-266565295#5_1" arrivalPos="172.76" arrivalSpeed="13.15" duration="71.00" routeLength="840.03" waitingTime="0.00" waitingCount="0" stopTime="0.00" timeLoss="8.17" rerouteNo="1" devices="tripinfo_carIn113711:1 routing_carIn113711:1" vType="default_016" speedFactor="0.99" vaporized=""/>
    <tripinfo id="carIn25202:1" depart="57629.00" departLane="315358253#1_1" departPos="5.10" departSpeed="0.00" departDelay="1.50" arrival="57673.00" arrivalLane="32978638#0_1" arrivalPos="49.29" arrivalSpeed="12.50" duration="44.00" routeLength="405.15" waitingTime="0.00" waitingCount="0" stopTime="0.00" timeLoss="11.31" rerouteNo="1" devices="tripinfo_carIn25202:1 routing_carIn25202:1" vType="default_016" speedFactor="0.95" vaporized=""/>
    <tripinfo id="carIn55461:1" depart="57653.00" departLane="10425609#0_1" departPos="5.10" departSpeed="0.00" departDelay="1.30" arrival="57677.00" arrivalLane="201956810_1" arrivalPos="71.65" arrivalSpeed="14.86" duration="24.00" routeLength="255.78" waitingTime="0.00" waitingCount="0" stopTime="0.00" timeLoss="5.60" rerouteNo="1" devices="tripinfo_carIn55461:1 routing_carIn55461:1" vType="default_016" speedFactor="1.08" vaporized=""/>
    <tripinfo id="carIn124416:1" depart="57663.00" departLane="-173169611#0_1" departPos="5.10" departSpeed="0.00" departDelay="0.50" arrival="57678.00" arrivalLane="201956820_1" arrivalPos="48.33" arrivalSpeed="13.57" duration="15.00" routeLength="122.35" waitingTime="0.00" waitingCount="0" stopTime="0.00" timeLoss="5.26" rerouteNo="0" devices="tripinfo_carIn124416:1 routing_carIn124416:1" vType="default_016" speedFactor="1.05" vaporized=""/>
    <tripinfo id="carIn102997:1" depart="57623.00" departLane="653473569#5_1" departPos="5.10" departSpeed="0.00" departDelay="4.80" arrival="57680.00" arrivalLane="201956811#0_1" arrivalPos="40.40" arrivalSpeed="12.64" duration="57.00" routeLength="313.24" waitingTime="14.00" waitingCount="2" stopTime="0.00" timeLoss="32.41" rerouteNo="1" devices="tripinfo_carIn102997:1 routing_carIn102997:1" vType="default_016" speedFactor="0.95" vaporized=""/>
    <tripinfo id="carIn75554:1" depart="57626.00" departLane="653473569#5_1" departPos="5.10" departSpeed="0.00" departDelay="5.20" arrival="57682.00" arrivalLane="201956811#0_1" arrivalPos="40.40" arrivalSpeed="14.27" duration="56.00" routeLength="313.24" waitingTime="12.00" waitingCount="2" stopTime="0.00" timeLoss="33.99" rerouteNo="1" devices="tripinfo_carIn75554:1 routing_carIn75554:1" vType="default_016" speedFactor="1.10" vaporized=""/>
    <tripinfo id="carIn55090:1" depart="57666.00" departLane="-173169611#0_1" departPos="5.10" departSpeed="0.00" departDelay="1.40" arrival="57682.00" arrivalLane="201956820_1" arrivalPos="48.33" arrivalSpeed="13.49" duration="16.00" routeLength="122.35" waitingTime="0.00" waitingCount="0" stopTime="0.00" timeLoss="5.36" rerouteNo="0" devices="tripinfo_carIn55090:1 routing_carIn55090:1" vType="default_016" speedFactor="0.99" vaporized=""/>
    <tripinfo id="randUni20090:1" depart="57629.00" departLane="653473569#5_1" departPos="5.10" departSpeed="0.00" departDelay="1.00" arrival="57684.00" arrivalLane="201956811#0_1" arrivalPos="40.40" arrivalSpeed="13.67" duration="55.00" routeLength="313.24" waitingTime="11.00" waitingCount="2" stopTime="0.00" timeLoss="31.85" rerouteNo="1" devices="tripinfo_randUni20090:1 routing_randUni20090:1" vType="random_016" speedFactor="1.02" vaporized=""/>
    <tripinfo id="carIn37268:1" depart="57636.00" departLane="653473569#5_1" departPos="5.10" departSpeed="0.00" departDelay="0.90" arrival="57686.00" arrivalLane="201956811#0_1" arrivalPos="40.40" arrivalSpeed="12.47" duration="50.00" routeLength="313.24" waitingTime="1.00" waitingCount="1" stopTime="0.00" timeLoss="23.99" rerouteNo="1" devices="tripinfo_carIn37268:1 routing_carIn37268:1" vType="default_016" speedFactor="0.91" vaporized=""/>
    <tripinfo id="carIn33538:1" depart="57671.00" departLane="37386279_1" departPos="5.10" departSpeed="0.00" departDelay="0.30" arrival="57687.00" arrivalLane="-24634414#4_1" arrivalPos="22.88" arrivalSpeed="7.03" duration="16.00" routeLength="125.23" waitingTime="0.00" waitingCount="0" stopTime="0.00" timeLoss="3.83" rerouteNo="0" devices="tripinfo_carIn33538:1 routing_carIn33538:1" vType="default_016" speedFactor="0.94" vaporized=""/>
    <tripinfo id="h20540c1:1" depart="57634.00" departLane="10425609#0_1" departPos="5.10" departSpeed="0.00" departDelay="0.50" arrival="57688.00" arrivalLane="-653473569#5_1" arrivalPos="73.05" arrivalSpeed="13.38" duration="54.00" routeLength="312.95" waitingTime="14.00" waitingCount="2" stopTime="0.00" timeLoss="31.00" rerouteNo="1" devices="tripinfo_h20540c1:1 routing_h20540c1:1" vType="default_016" speedFactor="1.03" vaporized=""/>
    <tripinfo id="carIn52610:1" depart="57615.00" departLane="-24693977#1_1" departPos="5.10" departSpeed="0.00" departDelay="0.10" arrival="57690.00" arrivalLane="-266565295#5_1" arrivalPos="172.76" arrivalSpeed="13.46" duration="75.00" routeLength="840.03" waitingTime="0.00" waitingCount="0" stopTime="0.00" timeLoss="13.82" rerouteNo="1" devices="tripinfo_carIn52610:1 routing_carIn52610:1" vType="default_016" speedFactor="1.01" vaporized=""/>
    <tripinfo id="carIn107084:1" depart="57601.00" departLane="124812856#0_1" departPos="5.10" departSpeed="0.00" departDelay="0.70" arrival="57692.00" arrivalLane="-653473569#5_1" arrivalPos="73.05" arrivalSpeed="12.19" duration="91.00" routeLength="450.40" waitingTime="42.00" waitingCount="1" stopTime="0.00" timeLoss="54.32" rerouteNo="1" devices="tripinfo_carIn107084:1 routing_carIn107084:1" vType="default_016" speedFactor="0.93" vaporized=""/>
    <tripinfo id="carIn115641:1" depart="57614.00" departLane="-24693977#1_1" departPos="5.10" departSpeed="0.00" departDelay="0.90" arrival="57692.00" arrivalLane="-266565295#5_1" arrivalPos="172.76" arrivalSpeed="12.76" duration="78.00" routeLength="840.03" waitingTime="1.00" waitingCount="1" stopTime="0.00" timeLoss="13.80" rerouteNo="1" devices="tripinfo_carIn115641:1 routing_carIn115641:1" vType="default_016" speedFactor="0.97" vaporized=""/>
    <tripinfo id="carIn77943:1" depart="57607.00" departLane="124812856#0_1" departPos="5.10" departSpeed="0.00" departDelay="1.50" arrival="57693.00" arrivalLane="-653473569#5_1" arrivalPos="73.05" arrivalSpeed="15.12" duration="86.00" routeLength="450.40" waitingTime="37.00" waitingCount="1" stopTime="0.00" timeLoss="58.68" rerouteNo="1" devices="tripinfo_carIn77943:1 routing_carIn77943:1" vType="default_016" speedFactor="1.22" vaporized=""/>
    <tripinfo id="randUni10474:1" depart="57605.00" departLane="124812856#0_1" departPos="5.10" departSpeed="0.00" departDelay="0.20" arrival="57696.00" arrivalLane="-653473569#5_1" arrivalPos="73.05" arrivalSpeed="12.56" duration="91.00" routeLength="450.40" waitingTime="38.00" waitingCount="1" stopTime="0.00" timeLoss="55.93" rerouteNo="1" devices="tripinfo_randUni10474:1 routing_randUni10474:1" vType="random_016" speedFactor="0.96" vaporized=""/>
    <tripinfo id="carIn81046:1" depart="57610.00" departLane="124812856#0_1" departPos="5.10" departSpeed="0.00" departDelay="1.50" arrival="57697.00" arrivalLane="-653473569#5_1" arrivalPos="73.05" arrivalSpeed="13.30" duration="87.00" routeLength="450.40" waitingTime="35.00" waitingCount="1" stopTime="0.00" timeLoss="53.49" rerouteNo="1" devices="tripinfo_carIn81046:1 routing_carIn81046:1" vType="default_016" speedFactor="0.99" vaporized=""/>
    <tripinfo id="carIn925:1" depart="57679.00" departLane="124812856#0_1" departPos="5.10" departSpeed="0.00" departDelay="52.90" arrival="57699.00" arrivalLane="201956810_1" arrivalPos="71.65" arrivalSpeed="14.24" duration="20.00" routeLength="134.91" waitingTime="0.00" waitingCount="0" stopTime="0.00" timeLoss="9.70" rerouteNo="1" devices="tripinfo_carIn925:1 routing_carIn925:1" vType="default_016" speedFactor="1.08" vaporized=""/>
    <tripinfo id="carIn13117:1" depart="57627.00" departLane="27920078#0_1" departPos="5.10" departSpeed="0.00" departDelay="1.80" arrival="57701.00" arrivalLane="201956820_1" arrivalPos="48.33" arrivalSpeed="12.60" duration="74.00" routeLength="552.44" waitingTime="14.00" waitingCount="2" stopTime="0.00" timeLoss="31.98" rerouteNo="1" devices="tripinfo_carIn13117:1 routing_carIn13117:1" vType="default_016" speedFactor="0.97" vaporized=""/>
    <tripinfo id="carIn20106:1" depart="57631.00" departLane="27920078#0_1" departPos="5.10" departSpeed="0.00" departDelay="3.70" arrival="57701.00" arrivalLane="201956820_2" arrivalPos="48.33" arrivalSpeed="11.96" duration="70.00" routeLength="552.44" waitingTime="6.00" waitingCount="1" stopTime="0.00" timeLoss="24.23" rerouteNo="1" devices="tripinfo_carIn20106:1 routing_carIn20106:1" vType="default_016" speedFactor="0.87" vaporized=""/>
    <tripinfo id="h21130c2:1" depart="57630.00" departLane="10425609#0_1" departPos="5.10" departSpeed="0.00" departDelay="0.10" arrival="57701.00" arrivalLane="202070434#2_1" arrivalPos="39.03" arrivalSpeed="8.81" duration="71.00" routeLength="432.30" waitingTime="9.00" waitingCount="2" stopTime="0.00" timeLoss="25.34" rerouteNo="1" devices="tripinfo_h21130c2:1 routing_h21130c2:1" vType="default_016" speedFactor="0.71" vaporized=""/>
    <tripinfo id="carIn10158:1" depart="57622.00" departLane="-24693977#1_1" departPos="5.10" departSpeed="0.00" departDelay="0.80" arrival="57702.00" arrivalLane="-266565295#5_1" arrivalPos="172.76" arrivalSpeed="10.86" duration="80.00" routeLength="840.03" waitingTime="0.00" waitingCount="0" stopTime="0.00" timeLoss="7.13" rerouteNo="1" devices="tripinfo_carIn10158:1 routing_carIn10158:1" vType="default_016" speedFactor="0.85" vaporized=""/>
    <tripinfo id="60R.41" depart="57623.00" departLane="27920078#0_1" departPos="12.10" departSpeed="0.00" departDelay="0.30" arrival="57702.00" arrivalLane="201956811#0_1" arrivalPos="40.40" arrivalSpeed="10.68" duration="79.00" routeLength="425.03" waitingTime="20.00" waitingCount="2" stopTime="0.00" timeLoss="47.70" rerouteNo="1" devices="tripinfo_60R.41 routing_60R.41" vType="bus" speedFactor="1.00" vaporized=""/>
    <tripinfo id="carIn114137:1" depart="57635.00" departLane="27920078#0_1" departPos="5.10" departSpeed="0.00" departDelay="4.10" arrival="57703.00" arrivalLane="-83304175#2_1" arrivalPos="189.34" arrivalSpeed="7.37" duration="68.00" routeLength="501.51" waitingTime="5.00" waitingCount="1" stopTime="0.00" timeLoss="19.76" rerouteNo="1" devices="tripinfo_carIn114137:1 routing_carIn114137:1" vType="default_016" speedFactor="0.99" vaporized=""/>
    <tripinfo id="60.39" depart="57643.00" departLane="10425609#0_1" departPos="12.10" departSpeed="0.00" departDelay="0.50" arrival="57703.00" arrivalLane="202070434#2_2" arrivalPos="39.03" arrivalSpeed="13.80" duration="60.00" routeLength="425.30" waitingTime="3.00" waitingCount="2" stopTime="0.00" timeLoss="27.81" rerouteNo="1" devices="tripinfo_60.39 routing_60.39" vType="bus" speedFactor="1.00" vaporized=""/>
    <tripinfo id="randUni27349:1" depart="57638.00" departLane="27920078#0_1" departPos="5.10" departSpeed="0.00" departDelay="4.10" arrival="57704.00" arrivalLane="201956811#0_1" arrivalPos="40.40" arrivalSpeed="12.91" duration="66.00" routeLength="432.03" waitingTime="10.00" waitingCount="2" stopTime="0.00" timeLoss="37.00" rerouteNo="1" devices="tripinfo_randUni27349:1 routing_randUni27349:1" vType="random_016" speedFactor="1.09" vaporized=""/>
    <tripinfo id="carIn12152:1" depart="57647.00" departLane="24599188#0.94_1" departPos="5.10" departSpeed="0.00" departDelay="0.50" arrival="57704.00" arrivalLane="24693977#1_1" arrivalPos="96.83" arrivalSpeed="16.67" duration="57.00" routeLength="511.77" waitingTime="5.00" waitingCount="1" stopTime="0.00" timeLoss="19.27" rerouteNo="1" devices="tripinfo_carIn12152:1 routing_carIn12152:1" vType="default_016" speedFactor="1.27" vaporized=""/>
    <tripinfo id="carIn22637:1" depart="57636.00" departLane="27920078#0_1" departPos="5.10" departSpeed="0.00" departDelay="3.50" arrival="57705.00" arrivalLane="-83304175#2_1" arrivalPos="189.34" arrivalSpeed="8.13" duration="69.00" routeLength="501.51" waitingTime="4.00" waitingCount="2" stopTime="0.00" timeLoss="24.45" rerouteNo="1" devices="tripinfo_carIn22637:1 routing_carIn22637:1" vType="default_016" speedFactor="1.07" vaporized=""/>
    <tripinfo id="h2215c1:1" depart="57657.00" departLane="25145012#7_1" departPos="5.10" departSpeed="0.00" departDelay="0.90" arrival="57706.00" arrivalLane="201956811#0_1" arrivalPos="40.40" arrivalSpeed="13.30" duration="49.00" routeLength="384.54" waitingTime="2.00" waitingCount="1" stopTime="0.00" timeLoss="20.09" rerouteNo="1" devices="tripinfo_h2215c1:1 routing_h2215c1:1" vType="default_016" speedFactor="1.00" vaporized=""/>
    <tripinfo id="carIn96537:1" depart="57613.00" departLane="124812856#0_1" departPos="5.10" departSpeed="0.00" departDelay="1.80" arrival="57708.00" arrivalLane="202070434#2_1" arrivalPos="39.03" arrivalSpeed="13.31" duration="95.00" routeLength="569.75" waitingTime="39.00" waitingCount="2" stopTime="0.00" timeLoss="54.03" rerouteNo="1" devices="tripinfo_carIn96537:1 routing_carIn96537:1" vType="default_016" speedFactor="1.02" vaporized=""/>
    <tripinfo id="carIn77438:1" depart="57616.00" departLane="124812856#0_1" departPos="5.10" departSpeed="0.00" departDelay="3.10" arrival="57710.00" arrivalLane="-653473569#5_1" arrivalPos="73.05" arrivalSpeed="14.86" duration="94.00" routeLength="450.40" waitingTime="41.00" waitingCount="2" stopTime="0.00" timeLoss="63.61" rerouteNo="1" devices="tripinfo_carIn77438:1 routing_carIn77438:1" vType="default_016" speedFactor="1.11" vaporized=""/>
    <tripinfo id="carIn26410:1" depart="57618.00" departLane="124812856#0_1" departPos="5.10" departSpeed="0.00" departDelay="4.50" arrival="57710.00" arrivalLane="202070434#2_2" arrivalPos="39.03" arrivalSpeed="13.24" duration="92.00" routeLength="569.75" waitingTime="32.00" waitingCount="1" stopTime="0.00" timeLoss="49.09" rerouteNo="1" devices="tripinfo_carIn26410:1 routing_carIn26410:1" vType="default_016" speedFactor="0.96" vaporized=""/>
    <tripinfo id="h19804c1:3" depart="57621.00" departLane="124812856#0_1" departPos="5.10" departSpeed="0.00" departDelay="5.50" arrival="57713.00" arrivalLane="-653473569#5_1" arrivalPos="73.05" arrivalSpeed="11.93" duration="92.00" routeLength="450.40" waitingTime="38.00" waitingCount="2" stopTime="0.00" timeLoss="56.00" rerouteNo="1" devices="tripinfo_h19804c1:3 routing_h19804c1:3" vType="default_016" speedFactor="0.93" vaporized=""/>
    <tripinfo id="carIn767:1" depart="57660.00" departLane="124812856#0_1" departPos="5.10" departSpeed="0.00" departDelay="41.50" arrival="57715.00" arrivalLane="-653473569#5_1" arrivalPos="73.05" arrivalSpeed="12.16" duration="55.00" routeLength="450.40" waitingTime="7.00" waitingCount="1" stopTime="0.00" timeLoss="17.79" rerouteNo="1" devices="tripinfo_carIn767:1 routing_carIn767:1" vType="default_016" speedFactor="0.90" vaporized=""/>
    <tripinfo id="carIn128705:1" depart="57625.00" departLane="124812856#0_1" departPos="5.10" departSpeed="0.00" departDelay="6.60" arrival="57717.00" arrivalLane="202070434#2_1" arrivalPos="39.03" arrivalSpeed="14.06" duration="92.00" routeLength="569.75" waitingTime="31.00" waitingCount="2" stopTime="0.00" timeLoss="52.87" rerouteNo="1" devices="tripinfo_carIn128705:1 routing_carIn128705:1" vType="default_016" speedFactor="1.06" vaporized=""/>
    <tripinfo id="carIn129760:1" depart="57661.00" departLane="653473569#5_1" departPos="5.10" departSpeed="0.00" departDelay="0.80" arrival="57718.00" arrivalLane="201956811#0_1" arrivalPos="40.40" arrivalSpeed="14.63" duration="57.00" routeLength="313.24" waitingTime="6.00" waitingCount="3" stopTime="0.00" timeLoss="34.94" rerouteNo="1" devices="tripinfo_carIn129760:1 routing_carIn129760:1" vType="default_016" speedFactor="1.10" vaporized=""/>
    <tripinfo id="carIn129626:1" depart="57664.00" departLane="653473569#5_1" departPos="5.10" departSpeed="0.00" departDelay="1.60" arrival="57720.00" arrivalLane="201956811#0_1" arrivalPos="40.40" arrivalSpeed="13.38" duration="56.00" routeLength="313.24" waitingTime="3.00" waitingCount="2" stopTime="0.00" timeLoss="32.80" rerouteNo="1" devices="tripinfo_carIn129626:1 routing_carIn129626:1" vType="default_016" speedFactor="1.04" vaporized=""/>
    <tripinfo id="h3688c1:1" depart="57679.00" departLane="315358253#1_1" departPos="5.10" departSpeed="0.00" departDelay="0.50" arrival="57720.00" arrivalLane="32978638#0_1" arrivalPos="49.29" arrivalSpeed="13.89" duration="41.00" routeLength="405.15" waitingTime="1.00" waitingCount="1" stopTime="0.00" timeLoss="12.62" rerouteNo="1" devices="tripinfo_h3688c1:1 routing_h3688c1:1" vType="default_016" speedFactor="1.09" vaporized=""/>
    <tripinfo id="h20403c1:5" depart="57641.00" departLane="27920078#0_1" departPos="5.10" departSpeed="0.00" departDelay="5.60" arrival="57722.00" arrivalLane="201956811#0_1" arrivalPos="40.40" arrivalSpeed="12.36" duration="81.00" routeLength="432.03" waitingTime="5.00" waitingCount="3" stopTime="0.00" timeLoss="47.75" rerouteNo="1" devices="tripinfo_h20403c1:5 routing_h20403c1:5" vType="default_016" speedFactor="0.96" vaporized=""/>
    <tripinfo id="carIn131078:1" depart="57703.00" departLane="124812856#0_1" departPos="5.10" departSpeed="0.00" departDelay="67.60" arrival="57723.00" arrivalLane="201956810_1" arrivalPos="71.65" arrivalSpeed="15.51" duration="20.00" routeLength="134.91" waitingTime="2.00" waitingCount="1" stopTime="0.00" timeLoss="10.60" rerouteNo="1" devices="tripinfo_carIn131078:1 routing_carIn131078:1" vType="default_016" speedFactor="1.16" vaporized=""/>
    <tripinfo id="carIn7887:1" depart="57661.00" departLane="27920078#0_1" departPos="5.10" departSpeed="0.00" departDelay="0.50" arrival="57723.00" arrivalLane="-83304175#2_1" arrivalPos="189.34" arrivalSpeed="7.37" duration="62.00" routeLength="501.51" waitingTime="0.00" waitingCount="0" stopTime="0.00" timeLoss="11.53" rerouteNo="1" devices="tripinfo_carIn7887:1 routing_carIn7887:1" vType="default_016" speedFactor="0.94" vaporized=""/>
    <tripinfo id="carIn73466:1" depart="57644.00" departLane="27920078#0_1" departPos="5.10" departSpeed="0.00" departDelay="7.10" arrival="57724.00" arrivalLane="201956811#0_1" arrivalPos="40.40" arrivalSpeed="10.80" duration="80.00" routeLength="432.03" waitingTime="1.00" waitingCount="1" stopTime="0.00" timeLoss="40.61" rerouteNo="1" devices="tripinfo_carIn73466:1 routing_carIn73466:1" vType="default_016" speedFactor="0.80" vaporized=""/>
    <tripinfo id="carIn12775:1" depart="57676.00" departLane="10425609#0_1" departPos="5.10" departSpeed="0.00" departDelay="0.60" arrival="57724.00" arrivalLane="-653473569#5_1" arrivalPos="73.05" arrivalSpeed="12.57" duration="48.00" routeLength="312.95" waitingTime="15.00" waitingCount="1" stopTime="0.00" timeLoss="22.27" rerouteNo="1" devices="tripinfo_carIn12775:1 routing_carIn12775:1" vType="default_016" speedFactor="0.93" vaporized=""/>
    <tripinfo id="carIn51024:1" depart="57622.00" departLane="124812856#0_1" departPos="5.10" departSpeed="0.00" departDelay="5.90" arrival="57728.00" arrivalLane="202070434#2_1" arrivalPos="39.03" arrivalSpeed="12.07" duration="106.00" routeLength="569.75" waitingTime="40.00" waitingCount="3" stopTime="0.00" timeLoss="62.13" rerouteNo="1" devices="tripinfo_carIn51024:1 routing_carIn51024:1" vType="default_016" speedFactor="0.94" vaporized=""/>
    <tripinfo id="h10915c2:1" depart="57626.00" departLane="315358253#1_1" departPos="5.10" departSpeed="0.00" departDelay="0.20" arrival="57729.00" arrivalLane="-653473569#5_1" arrivalPos="73.05" arrivalSpeed="14.00" duration="103.00" routeLength="970.09" waitingTime="12.00" waitingCount="3" stopTime="0.00" timeLoss="36.45" rerouteNo="1" devices="tripinfo_h10915c2:1 routing_h10915c2:1" vType="default_016" speedFactor="1.08" vaporized=""/>
    <tripinfo id="randUni5403:1" depart="57632.00" departLane="315358253#1_1" departPos="5.10" departSpeed="0.00" departDelay="2.90" arrival="57731.00" arrivalLane="-653473569#5_1" arrivalPos="73.05" arrivalSpeed="14.00" duration="99.00" routeLength="970.09" waitingTime="6.00" waitingCount="2" stopTime="0.00" timeLoss="30.51" rerouteNo="1" devices="tripinfo_randUni5403:1 routing_randUni5403:1" vType="random_016" speedFactor="1.04" vaporized=""/>
    <tripinfo id="carIn21160:1" depart="57674.00" departLane="-24693977#1_1" departPos="5.10" departSpeed="0.00" departDelay="0.10" arrival="57735.00" arrivalLane="-266565295#5_1" arrivalPos="172.76" arrivalSpeed="15.16" duration="61.00" routeLength="840.03" waitingTime="0.00" waitingCount="0" stopTime="0.00" timeLoss="6.58" rerouteNo="1" devices="tripinfo_carIn21160:1 routing_carIn21160:1" vType="default_016" speedFactor="1.14" vaporized=""/>
    <tripinfo id="carIn12900:1" depart="57721.00" departLane="124812856#0_1" departPos="5.10" departSpeed="0.00" departDelay="72.80" arrival="57737.00" arrivalLane="201956810_1" arrivalPos="71.65" arrivalSpeed="11.61" duration="16.00" routeLength="134.91" waitingTime="0.00" waitingCount="0" stopTime="0.00" timeLoss="3.30" rerouteNo="1" devices="tripinfo_carIn12900:1 routing_carIn12900:1" vType="default_016" speedFactor="0.85" vaporized=""/>
    <tripinfo id="carIn107842:1" depart="57666.00" departLane="124812856#0_1" departPos="5.10" departSpeed="0.00" departDelay="44.90" arrival="57741.00" arrivalLane="-653473569#5_1" arrivalPos="73.05" arrivalSpeed="12.53" duration="75.00" routeLength="450.40" waitingTime="17.00" waitingCount="4" stopTime="0.00" timeLoss="41.37" rerouteNo="1" devices="tripinfo_carIn107842:1 routing_carIn107842:1" vType="default_016" speedFactor="0.99" vaporized=""/>
    <tripinfo id="carIn3969:1" depart="57672.00" departLane="124812856#0_1" departPos="5.10" departSpeed="0.00" departDelay="48.30" arrival="57744.00" arrivalLane="-653473569#5_1" arrivalPos="73.05" arrivalSpeed="11.82" duration="72.00" routeLength="450.40" waitingTime="9.00" waitingCount="3" stopTime="0.00" timeLoss="34.79" rerouteNo="1" devices="tripinfo_carIn3969:1 routing_carIn3969:1" vType="default_016" speedFactor="0.91" vaporized=""/>
    <tripinfo id="h5292c2:1" depart="57656.00" departLane="-24693977#1_1" departPos="5.10" departSpeed="0.00" departDelay="0.00" arrival="57744.00" arrivalLane="-266565295#5_1" arrivalPos="172.76" arrivalSpeed="12.23" duration="88.00" routeLength="840.03" waitingTime="7.00" waitingCount="1" stopTime="0.00" timeLoss="20.08" rerouteNo="1" devices="tripinfo_h5292c2:1 routing_h5292c2:1" vType="default_016" speedFactor="0.91" vaporized=""/>
    <tripinfo id="carIn17767:1" depart="57680.00" departLane="124812856#0_1" departPos="5.10" departSpeed="0.00" departDelay="52.80" arrival="57746.00" arrivalLane="-653473569#5_1" arrivalPos="73.05" arrivalSpeed="11.85" duration="66.00" routeLength="450.40" waitingTime="5.00" waitingCount="2" stopTime="0.00" timeLoss="29.10" rerouteNo="1" devices="tripinfo_carIn17767:1 routing_carIn17767:1" vType="default_016" speedFactor="0.91" vaporized=""/>
    <tripinfo id="h3568c1:3" depart="57656.00" departLane="266565295#5_1" departPos="5.10" departSpeed="0.00" departDelay="0.80" arrival="57747.00" arrivalLane="-24634415_1" arrivalPos="64.03" arrivalSpeed="13.31" duration="91.00" routeLength="810.20" waitingTime="7.00" waitingCount="1" stopTime="0.00" timeLoss="25.53" rerouteNo="1" devices="tripinfo_h3568c1:3 routing_h3568c1:3" vType="default_016" speedFactor="0.99" vaporized=""/>