<?xml version="1.0" encoding="UTF-8"?>

<!-- generated on 2025-04-21 22:06:46 by Eclipse SUMO sumo Version 1.22.0
<sumoConfiguration xmlns:xsi="http://www.w3.org/2001/XMLSchema-instance" xsi:noNamespaceSchemaLocation="http://sumo.dlr.de/xsd/sumoConfiguration.xsd">

    <input>
        <net-file value="/home/kalset1/Documents/cmu/robo/16831/project/RESCO/resco_benchmark/environments/cologne3/cologne3.net.xml"/>
        <route-files value="/home/kalset1/Documents/cmu/robo/16831/project/RESCO/resco_benchmark/environments/cologne3/cologne3.rou.xml"/>
    </input>

    <output>
        <tripinfo-output value="/home/kalset1/Documents/cmu/robo/16831/project/RESCO/results/IDQN-tr0-cologne3-0-drq_norm-wait_norm/tripinfo_1.xml"/>
        <tripinfo-output.write-unfinished value="true"/>
    </output>

    <time>
        <begin value="25200"/>
        <end value="28800"/>
    </time>

    <processing>
        <time-to-teleport value="-1"/>
    </processing>

    <report>
        <no-warnings value="True"/>
        <no-step-log value="True"/>
    </report>

    <traci_server>
        <remote-port value="37063"/>
    </traci_server>

    <random_number>
        <random value="true"/>
    </random_number>

</sumoConfiguration>
-->

<tripinfos xmlns:xsi="http://www.w3.org/2001/XMLSchema-instance" xsi:noNamespaceSchemaLocation="http://sumo.dlr.de/xsd/tripinfo_file.xsd">
    <tripinfo id="160296_421_0" depart="25211.00" departLane="241660955#13_0" departPos="4.40" departSpeed="0.00" departDelay="0.00" arrival="25231.00" arrivalLane="241660955#17_0" arrivalPos="110.13" arrivalSpeed="16.13" duration="20.00" routeLength="247.24" waitingTime="0.00" waitingCount="0" stopTime="0.00" timeLoss="4.79" rerouteNo="0" devices="tripinfo_160296_421_0" vType="pkw" speedFactor="1.19" vaporized=""/>
    <tripinfo id="169122_425_0" depart="25228.00" departLane="-4999334_0" departPos="4.40" departSpeed="0.00" departDelay="0.00" arrival="25253.00" arrivalLane="-4999334_0" arrivalPos="293.22" arrivalSpeed="13.56" duration="25.00" routeLength="288.82" waitingTime="0.00" waitingCount="0" stopTime="0.00" timeLoss="3.88" rerouteNo="0" devices="tripinfo_169122_425_0" vType="pkw" speedFactor="1.03" vaporized=""/>
    <tripinfo id="98545_395_0" depart="25206.00" departLane="4045330_0" departPos="4.40" departSpeed="0.00" departDelay="0.00" arrival="25254.00" arrivalLane="241660955#17_0" arrivalPos="110.13" arrivalSpeed="13.88" duration="48.00" routeLength="473.04" waitingTime="0.00" waitingCount="0" stopTime="0.00" timeLoss="9.93" rerouteNo="0" devices="tripinfo_98545_395_0" vType="pkw" speedFactor="1.06" vaporized=""/>
    <tripinfo id="163719_422_0" depart="25211.00" departLane="4045330_0" departPos="4.40" departSpeed="0.00" departDelay="0.00" arrival="25256.00" arrivalLane="241660955#17_0" arrivalPos="110.13" arrivalSpeed="13.32" duration="45.00" routeLength="473.04" waitingTime="0.00" waitingCount="0" stopTime="0.00" timeLoss="6.07" rerouteNo="0" devices="tripinfo_163719_422_0" vType="pkw" speedFactor="1.05" vaporized=""/>
    <tripinfo id="132667_410_0" depart="25212.00" departLane="-31800061#0_0" departPos="4.40" departSpeed="0.00" departDelay="0.00" arrival="25259.00" arrivalLane="-4999334_0" arrivalPos="293.22" arrivalSpeed="12.94" duration="47.00" routeLength="492.72" waitingTime="0.00" waitingCount="0" stopTime="0.00" timeLoss="6.26" rerouteNo="0" devices="tripinfo_132667_410_0" vType="pkw" speedFactor="1.01" vaporized=""/>
    <tripinfo id="141383_415_0" depart="25216.00" departLane="41910184_0" departPos="4.40" departSpeed="0.00" departDelay="0.00" arrival="25259.00" arrivalLane="4145589#0_0" arrivalPos="149.75" arrivalSpeed="8.56" duration="43.00" routeLength="368.38" waitingTime="2.00" waitingCount="1" stopTime="0.00" timeLoss="12.89" rerouteNo="0" devices="tripinfo_141383_415_0" vType="pkw" speedFactor="1.17" vaporized=""/>
    <tripinfo id="68266_381_0" depart="25229.00" departLane="4045329#5_0" departPos="4.40" departSpeed="0.00" departDelay="0.00" arrival="25259.00" arrivalLane="41910185#0_0" arrivalPos="127.86" arrivalSpeed="10.20" duration="30.00" routeLength="267.37" waitingTime="0.00" waitingCount="0" stopTime="0.00" timeLoss="9.76" rerouteNo="0" devices="tripinfo_68266_381_0" vType="pkw" speedFactor="1.30" vaporized=""/>
    <tripinfo id="73223_384_0" depart="25204.00" departLane="241660957#0_0" departPos="4.40" departSpeed="0.00" departDelay="0.00" arrival="25263.00" arrivalLane="4999331#0_0" arrivalPos="373.64" arrivalSpeed="12.11" duration="59.00" routeLength="489.64" waitingTime="12.00" waitingCount="1" stopTime="0.00" timeLoss="21.07" rerouteNo="0" devices="tripinfo_73223_384_0" vType="pkw" speedFactor="0.95" vaporized=""/>
    <tripinfo id="132022_410_0" depart="25213.00" departLane="241660957#0_0" departPos="4.40" departSpeed="0.00" departDelay="0.00" arrival="25263.00" arrivalLane="4999331#0_1" arrivalPos="373.64" arrivalSpeed="12.52" duration="50.00" routeLength="489.64" waitingTime="2.00" waitingCount="1" stopTime="0.00" timeLoss="11.71" rerouteNo="0" devices="tripinfo_132022_410_0" vType="pkw" speedFactor="0.94" vaporized=""/>
    <tripinfo id="140163_414_0" depart="25244.00" departLane="241660955#13_0" departPos="4.40" departSpeed="0.00" departDelay="0.00" arrival="25263.00" arrivalLane="-41910184_0" arrivalPos="185.90" arrivalSpeed="13.63" duration="19.00" routeLength="216.76" waitingTime="0.00" waitingCount="0" stopTime="0.00" timeLoss="3.17" rerouteNo="0" devices="tripinfo_140163_414_0" vType="pkw" speedFactor="1.01" vaporized=""/>
    <tripinfo id="131963_410_0" depart="25223.00" departLane="-31800061#0_0" departPos="4.40" departSpeed="0.00" departDelay="0.00" arrival="25269.00" arrivalLane="-4999334_0" arrivalPos="293.22" arrivalSpeed="14.16" duration="46.00" routeLength="492.72" waitingTime="0.00" waitingCount="0" stopTime="0.00" timeLoss="6.79" rerouteNo="0" devices="tripinfo_131963_410_0" vType="pkw" speedFactor="1.04" vaporized=""/>
    <tripinfo id="140878_414_0" depart="25231.00" departLane="-130160207#0_0" departPos="4.40" departSpeed="0.00" departDelay="0.00" arrival="25271.00" arrivalLane="241660955#17_0" arrivalPos="110.13" arrivalSpeed="12.00" duration="40.00" routeLength="250.75" waitingTime="5.00" waitingCount="1" stopTime="0.00" timeLoss="12.50" rerouteNo="0" devices="tripinfo_140878_414_0" vType="pkw" speedFactor="0.91" vaporized=""/>
    <tripinfo id="81370_389_0" depart="25231.00" departLane="4045329#5_0" departPos="4.40" departSpeed="0.00" departDelay="0.00" arrival="25273.00" arrivalLane="-4045330_0" arrivalPos="128.76" arrivalSpeed="6.27" duration="42.00" routeLength="329.66" waitingTime="0.00" waitingCount="0" stopTime="0.00" timeLoss="7.47" rerouteNo="0" devices="tripinfo_81370_389_0" vType="pkw" speedFactor="0.90" vaporized=""/>
    <tripinfo id="141513_415_0" depart="25233.00" departLane="4999334_0" departPos="4.40" departSpeed="0.00" departDelay="0.00" arrival="25280.00" arrivalLane="4145590#0_1" arrivalPos="95.58" arrivalSpeed="14.85" duration="47.00" routeLength="615.60" waitingTime="0.00" waitingCount="0" stopTime="0.00" timeLoss="6.48" rerouteNo="0" devices="tripinfo_141513_415_0" vType="pkw" speedFactor="1.11" vaporized=""/>
    <tripinfo id="163598_422_0" depart="25236.00" departLane="-130160207#0_0" departPos="4.40" departSpeed="0.00" departDelay="0.00" arrival="25283.00" arrivalLane="241660955#17_0" arrivalPos="110.13" arrivalSpeed="10.10" duration="47.00" routeLength="250.75" waitingTime="6.00" waitingCount="1" stopTime="0.00" timeLoss="14.78" rerouteNo="0" devices="tripinfo_163598_422_0" vType="pkw" speedFactor="0.78" vaporized=""/>
    <tripinfo id="161160_421_0" depart="25225.00" departLane="241660957#0_0" departPos="4.40" departSpeed="0.00" departDelay="0.00" arrival="25285.00" arrivalLane="4999331#0_0" arrivalPos="373.64" arrivalSpeed="12.17" duration="60.00" routeLength="489.64" waitingTime="9.00" waitingCount="1" stopTime="0.00" timeLoss="19.61" rerouteNo="0" devices="tripinfo_161160_421_0" vType="pkw" speedFactor="0.89" vaporized=""/>
    <tripinfo id="161578_421_0" depart="25263.00" departLane="-4999334_0" departPos="4.40" departSpeed="0.00" departDelay="0.00" arrival="25289.00" arrivalLane="-4999334_0" arrivalPos="293.22" arrivalSpeed="12.12" duration="26.00" routeLength="288.82" waitingTime="0.00" waitingCount="0" stopTime="0.00" timeLoss="4.07" rerouteNo="0" devices="tripinfo_161578_421_0" vType="pkw" speedFactor="0.96" vaporized=""/>
    <tripinfo id="118698_405_0" depart="25214.00" departLane="-5229966#3_0" departPos="4.40" departSpeed="0.00" departDelay="1.00" arrival="25290.00" arrivalLane="4145590#0_0" arrivalPos="95.58" arrivalSpeed="13.40" duration="76.00" routeLength="453.02" waitingTime="25.00" waitingCount="2" stopTime="0.00" timeLoss="43.00" rerouteNo="0" devices="tripinfo_118698_405_0" vType="pkw" speedFactor="0.99" vaporized=""/>
    <tripinfo id="166826_424_0" depart="25240.00" departLane="41910184_0" departPos="4.40" departSpeed="0.00" departDelay="0.00" arrival="25290.00" arrivalLane="4145589#0_0" arrivalPos="149.75" arrivalSpeed="6.55" duration="50.00" routeLength="368.38" waitingTime="0.00" waitingCount="0" stopTime="0.00" timeLoss="7.30" rerouteNo="0" devices="tripinfo_166826_424_0" vType="pkw" speedFactor="0.81" vaporized=""/>
    <tripinfo id="168647_425_0" depart="25266.00" departLane="-4999334_0" departPos="4.40" departSpeed="0.00" departDelay="0.00" arrival="25291.00" arrivalLane="-4999334_0" arrivalPos="293.22" arrivalSpeed="13.16" duration="25.00" routeLength="288.82" waitingTime="0.00" waitingCount="0" stopTime="0.00" timeLoss="4.09" rerouteNo="0" devices="tripinfo_168647_425_0" vType="pkw" speedFactor="1.03" vaporized=""/>
    <tripinfo id="137478_412_0" depart="25248.00" departLane="4045330_0" departPos="4.40" departSpeed="0.00" departDelay="0.00" arrival="25293.00" arrivalLane="241660955#17_1" arrivalPos="110.13" arrivalSpeed="14.14" duration="45.00" routeLength="473.04" waitingTime="0.00" waitingCount="0" stopTime="0.00" timeLoss="6.09" rerouteNo="0" devices="tripinfo_137478_412_0" vType="pkw" speedFactor="1.05" vaporized=""/>
    <tripinfo id="100301_396_0" depart="25260.00" departLane="-241660955#17_0" departPos="4.40" departSpeed="0.00" departDelay="0.00" arrival="25293.00" arrivalLane="130160207#0_0" arrivalPos="135.18" arrivalSpeed="7.41" duration="33.00" routeLength="257.86" waitingTime="0.00" waitingCount="0" stopTime="0.00" timeLoss="6.28" rerouteNo="0" devices="tripinfo_100301_396_0" vType="pkw" speedFactor="0.98" vaporized=""/>
    <tripinfo id="85241_390_0" depart="25243.00" departLane="41910184_0" departPos="4.40" departSpeed="0.00" departDelay="1.00" arrival="25295.00" arrivalLane="241660955#17_0" arrivalPos="110.13" arrivalSpeed="13.33" duration="52.00" routeLength="451.07" waitingTime="6.00" waitingCount="1" stopTime="0.00" timeLoss="18.68" rerouteNo="0" devices="tripinfo_85241_390_0" vType="pkw" speedFactor="1.00" vaporized=""/>
    <tripinfo id="118681_405_0" depart="25237.00" departLane="4999334_0" departPos="4.40" departSpeed="0.00" departDelay="0.00" arrival="25296.00" arrivalLane="-31864804_1" arrivalPos="70.23" arrivalSpeed="14.39" duration="59.00" routeLength="615.92" waitingTime="2.00" waitingCount="1" stopTime="0.00" timeLoss="17.49" rerouteNo="0" devices="tripinfo_118681_405_0" vType="pkw" speedFactor="1.09" vaporized=""/>
    <tripinfo id="113109_402_0" depart="25203.00" departLane="4999334_0" departPos="4.40" departSpeed="0.00" departDelay="0.00" arrival="25298.00" arrivalLane="-31864804_0" arrivalPos="70.23" arrivalSpeed="12.03" duration="95.00" routeLength="615.92" waitingTime="32.00" waitingCount="1" stopTime="0.00" timeLoss="45.50" rerouteNo="0" devices="tripinfo_113109_402_0" vType="pkw" speedFactor="0.90" vaporized=""/>
    <tripinfo id="111993_401_0" depart="25251.00" departLane="4045329#5_0" departPos="4.40" departSpeed="0.00" departDelay="0.00" arrival="25298.00" arrivalLane="41910185#0_0" arrivalPos="127.86" arrivalSpeed="9.33" duration="47.00" routeLength="267.37" waitingTime="12.00" waitingCount="1" stopTime="0.00" timeLoss="23.28" rerouteNo="0" devices="tripinfo_111993_401_0" vType="pkw" speedFactor="1.13" vaporized=""/>
    <tripinfo id="160813_421_0" depart="25253.00" departLane="41910184_0" departPos="4.40" departSpeed="0.00" departDelay="0.00" arrival="25298.00" arrivalLane="4145589#0_0" arrivalPos="149.75" arrivalSpeed="7.55" duration="45.00" routeLength="368.38" waitingTime="0.00" waitingCount="0" stopTime="0.00" timeLoss="10.81" rerouteNo="0" devices="tripinfo_160813_421_0" vType="pkw" speedFactor="1.00" vaporized=""/>
    <tripinfo id="132705_410_0" depart="25200.00" departLane="-5229966#3_0" departPos="4.40" departSpeed="0.00" departDelay="0.00" arrival="25299.00" arrivalLane="4045332#0_0" arrivalPos="114.41" arrivalSpeed="7.04" duration="99.00" routeLength="720.54" waitingTime="27.00" waitingCount="1" stopTime="0.00" timeLoss="37.48" rerouteNo="0" devices="tripinfo_132705_410_0" vType="pkw" speedFactor="0.94" vaporized=""/>
    <tripinfo id="122325_406_0" depart="25208.00" departLane="319261593#12_0" departPos="4.40" departSpeed="0.00" departDelay="0.00" arrival="25302.00" arrivalLane="-31864804_0" arrivalPos="70.23" arrivalSpeed="12.71" duration="94.00" routeLength="352.97" waitingTime="53.00" waitingCount="2" stopTime="0.00" timeLoss="65.55" rerouteNo="0" devices="tripinfo_122325_406_0" vType="pkw" speedFactor="0.92" vaporized=""/>
    <tripinfo id="173797_427_0" depart="25226.00" departLane="-41910186_0" departPos="4.40" departSpeed="0.00" departDelay="0.00" arrival="25302.00" arrivalLane="4145590#0_1" arrivalPos="95.58" arrivalSpeed="15.22" duration="76.00" routeLength="894.77" waitingTime="2.00" waitingCount="1" stopTime="0.00" timeLoss="19.85" rerouteNo="0" devices="tripinfo_173797_427_0" vType="pkw" speedFactor="1.15" vaporized=""/>
    <tripinfo id="153968_420_0" depart="25227.00" departLane="319261593#12_0" departPos="4.40" departSpeed="0.00" departDelay="0.00" arrival="25303.00" arrivalLane="-31864804_0" arrivalPos="70.23" arrivalSpeed="13.48" duration="76.00" routeLength="352.97" waitingTime="35.00" waitingCount="2" stopTime="0.00" timeLoss="52.16" rerouteNo="0" devices="tripinfo_153968_420_0" vType="pkw" speedFactor="1.07" vaporized=""/>
    <tripinfo id="157649_421_0" depart="25229.00" departLane="319261593#12_0" departPos="4.40" departSpeed="0.00" departDelay="0.00" arrival="25305.00" arrivalLane="-31864804_0" arrivalPos="70.23" arrivalSpeed="12.93" duration="76.00" routeLength="352.97" waitingTime="33.00" waitingCount="2" stopTime="0.00" timeLoss="49.45" rerouteNo="0" devices="tripinfo_157649_421_0" vType="pkw" speedFactor="0.97" vaporized=""/>
    <tripinfo id="163366_422_0" depart="25253.00" departLane="-130160207#0_0" departPos="4.40" departSpeed="0.00" departDelay="0.00" arrival="25305.00" arrivalLane="241660955#17_0" arrivalPos="110.13" arrivalSpeed="12.34" duration="52.00" routeLength="250.75" waitingTime="13.00" waitingCount="2" stopTime="0.00" timeLoss="26.31" rerouteNo="0" devices="tripinfo_163366_422_0" vType="pkw" speedFactor="0.98" vaporized=""/>
    <tripinfo id="155750_420_0" depart="25256.00" departLane="-130160207#0_0" departPos="4.40" departSpeed="0.00" departDelay="0.00" arrival="25307.00" arrivalLane="241660955#17_0" arrivalPos="110.13" arrivalSpeed="11.80" duration="51.00" routeLength="250.75" waitingTime="12.00" waitingCount="2" stopTime="0.00" timeLoss="24.03" rerouteNo="0" devices="tripinfo_155750_420_0" vType="pkw" speedFactor="0.93" vaporized=""/>
    <tripinfo id="76573_386_0" depart="25275.00" departLane="-241660955#17_0" departPos="4.40" departSpeed="0.00" departDelay="0.00" arrival="25309.00" arrivalLane="130160207#0_0" arrivalPos="135.18" arrivalSpeed="6.79" duration="34.00" routeLength="257.86" waitingTime="0.00" waitingCount="0" stopTime="0.00" timeLoss="5.07" rerouteNo="0" devices="tripinfo_76573_386_0" vType="pkw" speedFactor="0.90" vaporized=""/>
    <tripinfo id="150954_418_0" depart="25249.00" departLane="-130160207#0_0" departPos="4.40" departSpeed="0.00" departDelay="0.00" arrival="25310.00" arrivalLane="-41910184_0" arrivalPos="185.90" arrivalSpeed="11.61" duration="61.00" routeLength="470.87" waitingTime="6.00" waitingCount="1" stopTime="0.00" timeLoss="14.61" rerouteNo="0" devices="tripinfo_150954_418_0" vType="pkw" speedFactor="0.87" vaporized=""/>
    <tripinfo id="153005_419_0" depart="25270.00" departLane="41910184_0" departPos="4.40" departSpeed="0.00" departDelay="0.00" arrival="25311.00" arrivalLane="4145589#0_0" arrivalPos="149.75" arrivalSpeed="7.99" duration="41.00" routeLength="368.38" waitingTime="0.00" waitingCount="0" stopTime="0.00" timeLoss="7.74" rerouteNo="0" devices="tripinfo_153005_419_0" vType="pkw" speedFactor="1.05" vaporized=""/>
    <tripinfo id="79538_387_0" depart="25216.00" departLane="-5229966#3_0" departPos="4.40" departSpeed="0.00" departDelay="1.00" arrival="25312.00" arrivalLane="4999331#0_0" arrivalPos="373.64" arrivalSpeed="12.76" duration="96.00" routeLength="731.93" waitingTime="18.00" waitingCount="3" stopTime="0.00" timeLoss="41.20" rerouteNo="0" devices="tripinfo_79538_387_0" vType="pkw" speedFactor="0.97" vaporized=""/>
    <tripinfo id="163790_422_0" depart="25264.00" departLane="-130160207#0_0" departPos="4.40" departSpeed="0.00" departDelay="0.00" arrival="25314.00" arrivalLane="130160207#0_0" arrivalPos="135.18" arrivalSpeed="7.91" duration="50.00" routeLength="270.63" waitingTime="8.00" waitingCount="1" stopTime="0.00" timeLoss="20.45" rerouteNo="0" devices="tripinfo_163790_422_0" vType="pkw" speedFactor="1.10" vaporized=""/>
    <tripinfo id="126562_407_0" depart="25263.00" departLane="241660957#0_0" departPos="4.40" departSpeed="0.00" departDelay="1.00" arrival="25316.00" arrivalLane="4999331#0_1" arrivalPos="373.64" arrivalSpeed="12.88" duration="53.00" routeLength="489.64" waitingTime="4.00" waitingCount="2" stopTime="0.00" timeLoss="16.49" rerouteNo="0" devices="tripinfo_126562_407_0" vType="pkw" speedFactor="0.98" vaporized=""/>
    <tripinfo id="123109_406_0" depart="25260.00" departLane="241660957#0_0" departPos="4.40" departSpeed="0.00" departDelay="0.00" arrival="25321.00" arrivalLane="4999331#0_0" arrivalPos="373.64" arrivalSpeed="9.35" duration="61.00" routeLength="489.64" waitingTime="3.00" waitingCount="1" stopTime="0.00" timeLoss="13.78" rerouteNo="0" devices="tripinfo_123109_406_0" vType="pkw" speedFactor="0.75" vaporized=""/>
    <tripinfo id="149951_417_0" depart="25274.00" departLane="-130160207#0_0" departPos="4.40" departSpeed="0.00" departDelay="0.00" arrival="25321.00" arrivalLane="241660955#17_0" arrivalPos="110.13" arrivalSpeed="12.47" duration="47.00" routeLength="250.75" waitingTime="9.00" waitingCount="2" stopTime="0.00" timeLoss="20.41" rerouteNo="0" devices="tripinfo_149951_417_0" vType="pkw" speedFactor="0.93" vaporized=""/>
    <tripinfo id="120846_405_0" depart="25207.00" departLane="31864804_0" departPos="4.40" departSpeed="0.00" departDelay="0.00" arrival="25324.00" arrivalLane="-4999334_0" arrivalPos="293.22" arrivalSpeed="14.74" duration="117.00" routeLength="621.86" waitingTime="64.00" waitingCount="1" stopTime="0.00" timeLoss="76.92" rerouteNo="0" devices="tripinfo_120846_405_0" vType="pkw" speedFactor="1.12" vaporized=""/>
    <tripinfo id="100929_396_0" depart="25233.00" departLane="-5229966#3_0" departPos="4.40" departSpeed="0.00" departDelay="0.00" arrival="25324.00" arrivalLane="4145590#0_1" arrivalPos="95.58" arrivalSpeed="15.49" duration="91.00" routeLength="453.70" waitingTime="36.00" waitingCount="3" stopTime="0.00" timeLoss="61.54" rerouteNo="0" devices="tripinfo_100929_396_0" vType="pkw" speedFactor="1.14" vaporized=""/>
    <tripinfo id="111294_401_0" depart="25211.00" departLane="-5229966#3_0" departPos="4.40" departSpeed="0.00" departDelay="0.00" arrival="25325.00" arrivalLane="4145590#0_0" arrivalPos="95.58" arrivalSpeed="13.62" duration="114.00" routeLength="453.70" waitingTime="59.00" waitingCount="3" stopTime="0.00" timeLoss="81.54" rerouteNo="0" devices="tripinfo_111294_401_0" vType="pkw" speedFactor="1.03" vaporized=""/>
    <tripinfo id="83081_390_0" depart="25228.00" departLane="31864804_0" departPos="4.40" departSpeed="0.00" departDelay="0.00" arrival="25332.00" arrivalLane="-4999334_0" arrivalPos="293.22" arrivalSpeed="15.57" duration="104.00" routeLength="688.22" waitingTime="46.00" waitingCount="1" stopTime="0.00" timeLoss="62.09" rerouteNo="0" devices="tripinfo_83081_390_0" vType="pkw" speedFactor="1.20" vaporized=""/>
    <tripinfo id="147095_416_0" depart="25300.00" departLane="-130160207#0_0" departPos="4.40" departSpeed="0.00" departDelay="0.00" arrival="25337.00" arrivalLane="241660955#17_0" arrivalPos="110.13" arrivalSpeed="12.34" duration="37.00" routeLength="250.75" waitingTime="1.00" waitingCount="1" stopTime="0.00" timeLoss="8.95" rerouteNo="0" devices="tripinfo_147095_416_0" vType="pkw" speedFactor="0.89" vaporized=""/>
    <tripinfo id="134770_411_0" depart="25235.00" departLane="-31800061#0_0" departPos="4.40" departSpeed="0.00" departDelay="0.00" arrival="25338.00" arrivalLane="-41910184_0" arrivalPos="185.90" arrivalSpeed="10.97" duration="103.00" routeLength="682.81" waitingTime="28.00" waitingCount="1" stopTime="0.00" timeLoss="39.59" rerouteNo="0" devices="tripinfo_134770_411_0" vType="pkw" speedFactor="0.86" vaporized=""/>
    <tripinfo id="153704_420_0" depart="25240.00" departLane="-31800061#0_0" departPos="4.40" departSpeed="0.00" departDelay="0.00" arrival="25339.00" arrivalLane="-41910184_0" arrivalPos="185.90" arrivalSpeed="13.28" duration="99.00" routeLength="682.81" waitingTime="24.00" waitingCount="2" stopTime="0.00" timeLoss="47.65" rerouteNo="0" devices="tripinfo_153704_420_0" vType="pkw" speedFactor="1.06" vaporized=""/>
    <tripinfo id="67548_381_0" depart="25289.00" departLane="-41910185#2_0" departPos="4.40" departSpeed="0.00" departDelay="1.00" arrival="25339.00" arrivalLane="241660955#10_0" arrivalPos="56.57" arrivalSpeed="12.54" duration="50.00" routeLength="191.84" waitingTime="18.00" waitingCount="1" stopTime="0.00" timeLoss="29.36" rerouteNo="0" devices="tripinfo_67548_381_0" vType="pkw" speedFactor="0.99" vaporized=""/>
    <tripinfo id="142858_415_0" depart="25309.00" departLane="-130160207#0_0" departPos="4.40" departSpeed="0.00" departDelay="0.00" arrival="25339.00" arrivalLane="241660955#17_0" arrivalPos="110.13" arrivalSpeed="13.44" duration="30.00" routeLength="250.75" waitingTime="0.00" waitingCount="0" stopTime="0.00" timeLoss="4.03" rerouteNo="0" devices="tripinfo_142858_415_0" vType="pkw" speedFactor="0.97" vaporized=""/>
    <tripinfo id="144088_416_0" depart="25304.00" departLane="241660955#6_0" departPos="4.40" departSpeed="0.00" departDelay="1.00" arrival="25341.00" arrivalLane="-4999334_0" arrivalPos="293.22" arrivalSpeed="12.78" duration="37.00" routeLength="357.51" waitingTime="1.00" waitingCount="1" stopTime="0.00" timeLoss="9.51" rerouteNo="0" devices="tripinfo_144088_416_0" vType="pkw" speedFactor="0.94" vaporized=""/>
    <tripinfo id="170585_426_0" depart="25288.00" departLane="241660957#0_0" departPos="4.40" departSpeed="0.00" departDelay="0.00" arrival="25342.00" arrivalLane="4999331#0_0" arrivalPos="373.64" arrivalSpeed="15.40" duration="54.00" routeLength="489.64" waitingTime="13.00" waitingCount="1" stopTime="0.00" timeLoss="22.89" rerouteNo="0" devices="tripinfo_170585_426_0" vType="pkw" speedFactor="1.15" vaporized=""/>
    <tripinfo id="149148_417_0" depart="25279.00" departLane="-130160207#0_0" departPos="4.40" departSpeed="0.00" departDelay="0.00" arrival="25345.00" arrivalLane="-41910184_0" arrivalPos="185.90" arrivalSpeed="15.27" duration="66.00" routeLength="470.87" waitingTime="15.00" waitingCount="3" stopTime="0.00" timeLoss="28.93" rerouteNo="0" devices="tripinfo_149148_417_0" vType="pkw" speedFactor="1.12" vaporized=""/>
    <tripinfo id="104671_398_0" depart="25286.00" departLane="-41910185#2_0" departPos="4.40" departSpeed="0.00" departDelay="0.00" arrival="25345.00" arrivalLane="241660955#11_0" arrivalPos="73.18" arrivalSpeed="11.44" duration="59.00" routeLength="279.28" waitingTime="20.00" waitingCount="1" stopTime="0.00" timeLoss="27.32" rerouteNo="0" devices="tripinfo_104671_398_0" vType="pkw" speedFactor="0.84" vaporized=""/>
    <tripinfo id="171899_426_0" depart="25303.00" departLane="-41910185#2_0" departPos="4.40" departSpeed="0.00" departDelay="0.00" arrival="25345.00" arrivalLane="-4045329#5_0" arrivalPos="121.37" arrivalSpeed="15.38" duration="42.00" routeLength="266.80" waitingTime="10.00" waitingCount="1" stopTime="0.00" timeLoss="19.69" rerouteNo="0" devices="tripinfo_171899_426_0" vType="pkw" speedFactor="1.16" vaporized=""/>
    <tripinfo id="71667_383_0" depart="25276.00" departLane="241660957#0_0" departPos="4.40" departSpeed="0.00" departDelay="0.00" arrival="25346.00" arrivalLane="4999331#0_0" arrivalPos="373.64" arrivalSpeed="13.01" duration="70.00" routeLength="489.64" waitingTime="23.00" waitingCount="1" stopTime="0.00" timeLoss="33.82" rerouteNo="0" devices="tripinfo_71667_383_0" vType="pkw" speedFactor="1.00" vaporized=""/>
    <tripinfo id="168091_425_0" depart="25282.00" departLane="-130160207#0_0" departPos="4.40" departSpeed="0.00" departDelay="1.00" arrival="25346.00" arrivalLane="-41910184_0" arrivalPos="185.90" arrivalSpeed="16.89" duration="64.00" routeLength="470.87" waitingTime="12.00" waitingCount="2" stopTime="0.00" timeLoss="30.56" rerouteNo="0" devices="tripinfo_168091_425_0" vType="pkw" speedFactor="1.22" vaporized=""/>
    <tripinfo id="147523_416_0" depart="25297.00" departLane="241660957#0_0" departPos="4.40" departSpeed="0.00" departDelay="0.00" arrival="25346.00" arrivalLane="4999331#0_1" arrivalPos="373.64" arrivalSpeed="14.09" duration="49.00" routeLength="489.64" waitingTime="4.00" waitingCount="1" stopTime="0.00" timeLoss="15.31" rerouteNo="0" devices="tripinfo_147523_416_0" vType="pkw" speedFactor="1.06" vaporized=""/>
    <tripinfo id="147727_416_0" depart="25301.00" departLane="41910184_0" departPos="4.40" departSpeed="0.00" departDelay="0.00" arrival="25346.00" arrivalLane="4145589#0_0" arrivalPos="149.75" arrivalSpeed="8.83" duration="45.00" routeLength="368.38" waitingTime="3.00" waitingCount="1" stopTime="0.00" timeLoss="13.55" rerouteNo="0" devices="tripinfo_147727_416_0" vType="pkw" speedFactor="1.11" vaporized=""/>
    <tripinfo id="101678_396_0" depart="25320.00" departLane="-41910185#2_0" departPos="4.40" departSpeed="0.00" departDelay="0.00" arrival="25349.00" arrivalLane="-4045329#5_0" arrivalPos="121.37" arrivalSpeed="13.43" duration="29.00" routeLength="266.80" waitingTime="0.00" waitingCount="0" stopTime="0.00" timeLoss="3.23" rerouteNo="0" devices="tripinfo_101678_396_0" vType="pkw" speedFactor="0.99" vaporized=""/>
    <tripinfo id="162714_422_0" depart="25301.00" departLane="4999334_0" departPos="4.40" departSpeed="0.00" departDelay="0.00" arrival="25350.00" arrivalLane="-4999334_0" arrivalPos="293.22" arrivalSpeed="14.19" duration="49.00" routeLength="586.71" waitingTime="0.00" waitingCount="0" stopTime="0.00" timeLoss="7.89" rerouteNo="0" devices="tripinfo_162714_422_0" vType="pkw" speedFactor="1.05" vaporized=""/>
    <tripinfo id="121240_405_0" depart="25302.00" departLane="241660957#0_0" departPos="4.40" departSpeed="0.00" departDelay="0.00" arrival="25350.00" arrivalLane="4999331#0_0" arrivalPos="373.64" arrivalSpeed="12.54" duration="48.00" routeLength="489.64" waitingTime="0.00" waitingCount="0" stopTime="0.00" timeLoss="8.47" rerouteNo="0" devices="tripinfo_121240_405_0" vType="pkw" speedFactor="0.91" vaporized=""/>
    <tripinfo id="139107_413_0" depart="25285.00" departLane="-130160207#0_0" departPos="4.40" departSpeed="0.00" departDelay="1.00" arrival="25351.00" arrivalLane="-41910184_0" arrivalPos="185.90" arrivalSpeed="12.76" duration="66.00" routeLength="470.87" waitingTime="9.00" waitingCount="2" stopTime="0.00" timeLoss="24.79" rerouteNo="0" devices="tripinfo_139107_413_0" vType="pkw" speedFactor="0.99" vaporized=""/>
    <tripinfo id="152332_419_0" depart="25314.00" departLane="-130160207#0_0" departPos="4.40" departSpeed="0.00" departDelay="1.00" arrival="25351.00" arrivalLane="241660955#17_0" arrivalPos="110.13" arrivalSpeed="12.10" duration="37.00" routeLength="250.75" waitingTime="2.00" waitingCount="1" stopTime="0.00" timeLoss="10.74" rerouteNo="0" devices="tripinfo_152332_419_0" vType="pkw" speedFactor="0.95" vaporized=""/>
    <tripinfo id="149020_417_0" depart="25323.00" departLane="4999331#0_0" departPos="4.40" departSpeed="0.00" departDelay="0.00" arrival="25351.00" arrivalLane="4999331#0_1" arrivalPos="373.64" arrivalSpeed="14.40" duration="28.00" routeLength="369.24" waitingTime="0.00" waitingCount="0" stopTime="0.00" timeLoss="4.15" rerouteNo="0" devices="tripinfo_149020_417_0" vType="pkw" speedFactor="1.12" vaporized=""/>
    <tripinfo id="163684_422_0" depart="25294.00" departLane="4045330_0" departPos="4.40" departSpeed="0.00" departDelay="0.00" arrival="25354.00" arrivalLane="241660955#17_1" arrivalPos="110.13" arrivalSpeed="14.68" duration="60.00" routeLength="473.04" waitingTime="9.00" waitingCount="2" stopTime="0.00" timeLoss="23.64" rerouteNo="0" devices="tripinfo_163684_422_0" vType="pkw" speedFactor="1.11" vaporized=""/>
    <tripinfo id="173932_427_0" depart="25275.00" departLane="-41910185#2_0" departPos="4.40" departSpeed="0.00" departDelay="0.00" arrival="25355.00" arrivalLane="241660955#17_0" arrivalPos="110.13" arrivalSpeed="14.08" duration="80.00" routeLength="545.38" waitingTime="21.00" waitingCount="2" stopTime="0.00" timeLoss="35.32" rerouteNo="0" devices="tripinfo_173932_427_0" vType="pkw" speedFactor="1.04" vaporized=""/>