<?xml version="1.0" encoding="UTF-8"?>

<!-- generated on 2025-04-21 21:04:57 by Eclipse SUMO sumo Version 1.22.0
<sumoConfiguration xmlns:xsi="http://www.w3.org/2001/XMLSchema-instance" xsi:noNamespaceSchemaLocation="http://sumo.dlr.de/xsd/sumoConfiguration.xsd">

    <input>
        <net-file value="/home/kalset1/Documents/cmu/robo/16831/project/RESCO/resco_benchmark/environments/ingolstadt1/ingolstadt1.net.xml"/>
        <route-files value="/home/kalset1/Documents/cmu/robo/16831/project/RESCO/resco_benchmark/environments/ingolstadt1/ingolstadt1.rou.xml"/>
    </input>

    <output>
        <tripinfo-output value="/home/kalset1/Documents/cmu/robo/16831/project/RESCO/results/IDQN-tr0-ingolstadt1-0-drq_norm-wait_norm/tripinfo_33.xml"/>
        <tripinfo-output.write-unfinished value="true"/>
    </output>

    <time>
        <begin value="57600"/>
        <end value="61200"/>
    </time>

    <processing>
        <time-to-teleport value="-1"/>
    </processing>

    <report>
        <no-warnings value="True"/>
        <no-step-log value="True"/>
    </report>

    <traci_server>
        <remote-port value="60313"/>
    </traci_server>

    <random_number>
        <random value="true"/>
    </random_number>

</sumoConfiguration>
-->

<tripinfos xmlns:xsi="http://www.w3.org/2001/XMLSchema-instance" xsi:noNamespaceSchemaLocation="http://sumo.dlr.de/xsd/tripinfo_file.xsd">
    <tripinfo id="carIn105842:1" depart="57601.00" departLane="653473569#5_1" departPos="5.10" departSpeed="0.00" departDelay="0.80" arrival="57623.00" arrivalLane="124812857#0_1" arrivalPos="143.49" arrivalSpeed="16.23" duration="22.00" routeLength="239.18" waitingTime="0.00" waitingCount="0" stopTime="0.00" timeLoss="6.89" rerouteNo="1" devices="tripinfo_carIn105842:1 routing_carIn105842:1" vType="default_016" speedFactor="1.18" vaporized=""/>
    <tripinfo id="h8750c1:1" depart="57609.00" departLane="104010354_1" departPos="5.10" departSpeed="0.00" departDelay="0.50" arrival="57632.00" arrivalLane="124812857#0_2" arrivalPos="143.49" arrivalSpeed="10.50" duration="23.00" routeLength="211.78" waitingTime="0.00" waitingCount="0" stopTime="0.00" timeLoss="3.53" rerouteNo="0" devices="tripinfo_h8750c1:1 routing_h8750c1:1" vType="default_016" speedFactor="0.80" vaporized=""/>
    <tripinfo id="carIn28488:1" depart="57611.00" departLane="653473569#5_1" departPos="5.10" departSpeed="0.00" departDelay="0.80" arrival="57635.00" arrivalLane="124812857#0_1" arrivalPos="143.49" arrivalSpeed="13.31" duration="24.00" routeLength="239.18" waitingTime="0.00" waitingCount="0" stopTime="0.00" timeLoss="4.94" rerouteNo="1" devices="tripinfo_carIn28488:1 routing_carIn28488:1" vType="default_016" speedFactor="1.00" vaporized=""/>
    <tripinfo id="carIn21562:1" depart="57611.00" departLane="201963537#1_1" departPos="5.10" departSpeed="0.00" departDelay="0.20" arrival="57637.00" arrivalLane="-653473569#5_1" arrivalPos="73.05" arrivalSpeed="12.36" duration="26.00" routeLength="256.07" waitingTime="0.00" waitingCount="0" stopTime="0.00" timeLoss="5.55" rerouteNo="1" devices="tripinfo_carIn21562:1 routing_carIn21562:1" vType="default_016" speedFactor="0.95" vaporized=""/>
    <tripinfo id="carIn106322:1" depart="57614.00" departLane="653473569#5_1" departPos="5.10" departSpeed="0.00" departDelay="2.20" arrival="57637.00" arrivalLane="124812857#0_1" arrivalPos="143.49" arrivalSpeed="14.21" duration="23.00" routeLength="239.18" waitingTime="0.00" waitingCount="0" stopTime="0.00" timeLoss="5.81" rerouteNo="1" devices="tripinfo_carIn106322:1 routing_carIn106322:1" vType="default_016" speedFactor="1.04" vaporized=""/>
    <tripinfo id="carIn28951:1" depart="57613.00" departLane="201963537#1_1" departPos="5.10" departSpeed="0.00" departDelay="0.30" arrival="57639.00" arrivalLane="-653473569#5_1" arrivalPos="73.05" arrivalSpeed="14.01" duration="26.00" routeLength="256.07" waitingTime="0.00" waitingCount="0" stopTime="0.00" timeLoss="6.42" rerouteNo="1" devices="tripinfo_carIn28951:1 routing_carIn28951:1" vType="default_016" speedFactor="1.01" vaporized=""/>
    <tripinfo id="carIn5482:1" depart="57617.00" departLane="653473569#5_1" departPos="5.10" departSpeed="0.00" departDelay="3.60" arrival="57639.00" arrivalLane="124812857#0_1" arrivalPos="143.49" arrivalSpeed="16.94" duration="22.00" routeLength="239.18" waitingTime="0.00" waitingCount="0" stopTime="0.00" timeLoss="7.74" rerouteNo="1" devices="tripinfo_carIn5482:1 routing_carIn5482:1" vType="default_016" speedFactor="1.28" vaporized=""/>
    <tripinfo id="carIn36103:1" depart="57620.00" departLane="653473569#5_1" departPos="5.10" departSpeed="0.00" departDelay="4.00" arrival="57644.00" arrivalLane="124812857#0_1" arrivalPos="143.49" arrivalSpeed="12.88" duration="24.00" routeLength="239.18" waitingTime="0.00" waitingCount="0" stopTime="0.00" timeLoss="5.72" rerouteNo="1" devices="tripinfo_carIn36103:1 routing_carIn36103:1" vType="default_016" speedFactor="0.98" vaporized=""/>
    <tripinfo id="carIn102997:1" depart="57623.00" departLane="653473569#5_1" departPos="5.10" departSpeed="0.00" departDelay="4.80" arrival="57647.00" arrivalLane="124812857#0_1" arrivalPos="143.49" arrivalSpeed="13.67" duration="24.00" routeLength="239.18" waitingTime="0.00" waitingCount="0" stopTime="0.00" timeLoss="6.00" rerouteNo="1" devices="tripinfo_carIn102997:1 routing_carIn102997:1" vType="default_016" speedFactor="1.01" vaporized=""/>
    <tripinfo id="carIn26332:1" depart="57621.00" departLane="201963537#1_1" departPos="5.10" departSpeed="0.00" departDelay="0.00" arrival="57647.00" arrivalLane="104012170_1" arrivalPos="109.94" arrivalSpeed="13.02" duration="26.00" routeLength="293.69" waitingTime="0.00" waitingCount="0" stopTime="0.00" timeLoss="4.24" rerouteNo="1" devices="tripinfo_carIn26332:1 routing_carIn26332:1" vType="default_015" speedFactor="0.99" vaporized=""/>
    <tripinfo id="carIn115534:1" depart="57624.00" departLane="201963537#1_1" departPos="5.10" departSpeed="0.00" departDelay="2.60" arrival="57649.00" arrivalLane="104012170_1" arrivalPos="109.94" arrivalSpeed="17.11" duration="25.00" routeLength="293.69" waitingTime="0.00" waitingCount="0" stopTime="0.00" timeLoss="7.12" rerouteNo="1" devices="tripinfo_carIn115534:1 routing_carIn115534:1" vType="default_015" speedFactor="1.25" vaporized=""/>
    <tripinfo id="carIn75554:1" depart="57626.00" departLane="653473569#5_1" departPos="5.10" departSpeed="0.00" departDelay="5.20" arrival="57650.00" arrivalLane="124812857#0_1" arrivalPos="143.49" arrivalSpeed="12.85" duration="24.00" routeLength="239.18" waitingTime="0.00" waitingCount="0" stopTime="0.00" timeLoss="5.87" rerouteNo="1" devices="tripinfo_carIn75554:1 routing_carIn75554:1" vType="default_016" speedFactor="0.99" vaporized=""/>
    <tripinfo id="h15808c1:1" depart="57627.00" departLane="201963537#1_1" departPos="5.10" departSpeed="0.00" departDelay="5.40" arrival="57651.00" arrivalLane="104012170_1" arrivalPos="109.94" arrivalSpeed="13.46" duration="24.00" routeLength="293.69" waitingTime="0.00" waitingCount="0" stopTime="0.00" timeLoss="3.92" rerouteNo="1" devices="tripinfo_h15808c1:1 routing_h15808c1:1" vType="default_016" speedFactor="1.06" vaporized=""/>
    <tripinfo id="randUni20090:1" depart="57629.00" departLane="653473569#5_1" departPos="5.10" departSpeed="0.00" departDelay="1.00" arrival="57652.00" arrivalLane="124812857#0_1" arrivalPos="143.49" arrivalSpeed="14.26" duration="23.00" routeLength="239.18" waitingTime="0.00" waitingCount="0" stopTime="0.00" timeLoss="5.94" rerouteNo="1" devices="tripinfo_randUni20090:1 routing_randUni20090:1" vType="random_016" speedFactor="1.07" vaporized=""/>
    <tripinfo id="carIn37268:1" depart="57636.00" departLane="653473569#5_1" departPos="5.10" departSpeed="0.00" departDelay="0.90" arrival="57663.00" arrivalLane="124812857#0_1" arrivalPos="143.49" arrivalSpeed="10.93" duration="27.00" routeLength="239.18" waitingTime="0.00" waitingCount="0" stopTime="0.00" timeLoss="4.75" rerouteNo="1" devices="tripinfo_carIn37268:1 routing_carIn37268:1" vType="default_016" speedFactor="0.83" vaporized=""/>
    <tripinfo id="carIn119141:1" depart="57631.00" departLane="201963537#1_1" departPos="5.10" departSpeed="0.00" departDelay="7.70" arrival="57667.00" arrivalLane="104012170_1" arrivalPos="109.94" arrivalSpeed="15.08" duration="36.00" routeLength="293.69" waitingTime="7.00" waitingCount="1" stopTime="0.00" timeLoss="16.40" rerouteNo="1" devices="tripinfo_carIn119141:1 routing_carIn119141:1" vType="default_015" speedFactor="1.12" vaporized=""/>
    <tripinfo id="carIn119185:1" depart="57635.00" departLane="201963537#1_1" departPos="5.10" departSpeed="0.00" departDelay="9.80" arrival="57667.00" arrivalLane="104012170_2" arrivalPos="109.94" arrivalSpeed="13.59" duration="32.00" routeLength="293.69" waitingTime="1.00" waitingCount="1" stopTime="0.00" timeLoss="11.16" rerouteNo="1" devices="tripinfo_carIn119185:1 routing_carIn119185:1" vType="default_015" speedFactor="1.03" vaporized=""/>
    <tripinfo id="carIn13117:1" depart="57638.00" departLane="104010354_1" departPos="5.10" departSpeed="0.00" departDelay="1.40" arrival="57668.00" arrivalLane="124812857#0_3" arrivalPos="143.49" arrivalSpeed="11.62" duration="30.00" routeLength="211.78" waitingTime="4.00" waitingCount="1" stopTime="0.00" timeLoss="13.13" rerouteNo="0" devices="tripinfo_carIn13117:1 routing_carIn13117:1" vType="default_016" speedFactor="0.92" vaporized=""/>
    <tripinfo id="carIn79970:1" depart="57640.00" departLane="201963537#1_1" departPos="5.10" departSpeed="0.00" departDelay="13.20" arrival="57670.00" arrivalLane="104012170_2" arrivalPos="109.94" arrivalSpeed="12.49" duration="30.00" routeLength="293.69" waitingTime="0.00" waitingCount="0" stopTime="0.00" timeLoss="6.74" rerouteNo="1" devices="tripinfo_carIn79970:1 routing_carIn79970:1" vType="default_016" speedFactor="0.95" vaporized=""/>
    <tripinfo id="carIn27195:1" depart="57645.00" departLane="201963537#1_1" departPos="5.10" departSpeed="0.00" departDelay="16.90" arrival="57670.00" arrivalLane="104012170_1" arrivalPos="109.94" arrivalSpeed="15.21" duration="25.00" routeLength="293.69" waitingTime="0.00" waitingCount="0" stopTime="0.00" timeLoss="5.03" rerouteNo="1" devices="tripinfo_carIn27195:1 routing_carIn27195:1" vType="default_016" speedFactor="1.11" vaporized=""/>
    <tripinfo id="60R.41" depart="57634.00" departLane="104010354_1" departPos="12.10" departSpeed="0.00" departDelay="0.50" arrival="57671.00" arrivalLane="124812857#0_2" arrivalPos="143.49" arrivalSpeed="13.70" duration="37.00" routeLength="204.78" waitingTime="7.00" waitingCount="1" stopTime="0.00" timeLoss="21.87" rerouteNo="0" devices="tripinfo_60R.41 routing_60R.41" vType="bus" speedFactor="1.00" vaporized=""/>
    <tripinfo id="carIn20106:1" depart="57641.00" departLane="104010354_1" departPos="5.10" departSpeed="0.00" departDelay="1.50" arrival="57671.00" arrivalLane="124812857#0_3" arrivalPos="143.49" arrivalSpeed="10.73" duration="30.00" routeLength="211.78" waitingTime="3.00" waitingCount="1" stopTime="0.00" timeLoss="11.62" rerouteNo="0" devices="tripinfo_carIn20106:1 routing_carIn20106:1" vType="default_016" speedFactor="0.84" vaporized=""/>
    <tripinfo id="carIn46350:1" depart="57630.00" departLane="201963537#1_1" departPos="5.10" departSpeed="0.00" departDelay="6.80" arrival="57673.00" arrivalLane="-653473569#5_1" arrivalPos="73.05" arrivalSpeed="11.22" duration="43.00" routeLength="256.07" waitingTime="9.00" waitingCount="2" stopTime="0.00" timeLoss="21.13" rerouteNo="1" devices="tripinfo_carIn46350:1 routing_carIn46350:1" vType="default_016" speedFactor="0.90" vaporized=""/>
    <tripinfo id="randUni27349:1" depart="57646.00" departLane="104010354_1" departPos="5.10" departSpeed="0.00" departDelay="0.90" arrival="57673.00" arrivalLane="124812857#0_2" arrivalPos="143.49" arrivalSpeed="13.42" duration="27.00" routeLength="211.78" waitingTime="0.00" waitingCount="0" stopTime="0.00" timeLoss="12.16" rerouteNo="0" devices="tripinfo_randUni27349:1 routing_randUni27349:1" vType="random_016" speedFactor="1.04" vaporized=""/>
    <tripinfo id="h20403c1:5" depart="57649.00" departLane="104010354_1" departPos="5.10" departSpeed="0.00" departDelay="2.40" arrival="57673.00" arrivalLane="124812857#0_3" arrivalPos="143.49" arrivalSpeed="14.24" duration="24.00" routeLength="211.78" waitingTime="0.00" waitingCount="0" stopTime="0.00" timeLoss="8.64" rerouteNo="0" devices="tripinfo_h20403c1:5 routing_h20403c1:5" vType="default_016" speedFactor="1.04" vaporized=""/>
    <tripinfo id="carIn75667:1" depart="57634.00" departLane="201963537#1_1" departPos="5.10" departSpeed="0.00" departDelay="9.40" arrival="57675.00" arrivalLane="-653473569#5_1" arrivalPos="73.05" arrivalSpeed="12.68" duration="41.00" routeLength="256.07" waitingTime="6.00" waitingCount="2" stopTime="0.00" timeLoss="20.86" rerouteNo="1" devices="tripinfo_carIn75667:1 routing_carIn75667:1" vType="default_016" speedFactor="0.99" vaporized=""/>
    <tripinfo id="carIn76112:1" depart="57638.00" departLane="201963537#1_1" departPos="5.10" departSpeed="0.00" departDelay="12.00" arrival="57677.00" arrivalLane="-653473569#5_1" arrivalPos="73.05" arrivalSpeed="13.18" duration="39.00" routeLength="256.07" waitingTime="3.00" waitingCount="2" stopTime="0.00" timeLoss="18.46" rerouteNo="1" devices="tripinfo_carIn76112:1 routing_carIn76112:1" vType="default_016" speedFactor="0.97" vaporized=""/>
    <tripinfo id="carIn96537:1" depart="57651.00" departLane="201963537#1_1" departPos="5.10" departSpeed="0.00" departDelay="20.30" arrival="57677.00" arrivalLane="104012170_1" arrivalPos="109.94" arrivalSpeed="13.28" duration="26.00" routeLength="293.69" waitingTime="0.00" waitingCount="0" stopTime="0.00" timeLoss="3.98" rerouteNo="1" devices="tripinfo_carIn96537:1 routing_carIn96537:1" vType="default_016" speedFactor="0.99" vaporized=""/>
    <tripinfo id="carIn27521:1" depart="57643.00" departLane="201963537#1_1" departPos="5.10" departSpeed="0.00" departDelay="15.50" arrival="57678.00" arrivalLane="-653473569#5_1" arrivalPos="73.05" arrivalSpeed="14.01" duration="35.00" routeLength="256.07" waitingTime="1.00" waitingCount="1" stopTime="0.00" timeLoss="17.27" rerouteNo="1" devices="tripinfo_carIn27521:1 routing_carIn27521:1" vType="default_015" speedFactor="1.08" vaporized=""/>
    <tripinfo id="carIn51024:1" depart="57659.00" departLane="201963537#1_1" departPos="5.10" departSpeed="0.00" departDelay="25.00" arrival="57685.00" arrivalLane="104012170_2" arrivalPos="109.94" arrivalSpeed="13.93" duration="26.00" routeLength="293.69" waitingTime="0.00" waitingCount="0" stopTime="0.00" timeLoss="5.17" rerouteNo="1" devices="tripinfo_carIn51024:1 routing_carIn51024:1" vType="default_016" speedFactor="1.05" vaporized=""/>
    <tripinfo id="carIn36018:1" depart="57667.00" departLane="104010354_1" departPos="5.10" departSpeed="0.00" departDelay="0.40" arrival="57685.00" arrivalLane="-653473569#5_1" arrivalPos="73.05" arrivalSpeed="14.38" duration="18.00" routeLength="153.51" waitingTime="0.00" waitingCount="0" stopTime="0.00" timeLoss="6.15" rerouteNo="1" devices="tripinfo_carIn36018:1 routing_carIn36018:1" vType="default_016" speedFactor="1.04" vaporized=""/>
    <tripinfo id="carIn128705:1" depart="57663.00" departLane="201963537#1_1" departPos="5.10" departSpeed="0.00" departDelay="27.30" arrival="57686.00" arrivalLane="104012170_2" arrivalPos="109.94" arrivalSpeed="16.20" duration="23.00" routeLength="293.69" waitingTime="0.00" waitingCount="0" stopTime="0.00" timeLoss="5.70" rerouteNo="1" devices="tripinfo_carIn128705:1 routing_carIn128705:1" vType="default_016" speedFactor="1.22" vaporized=""/>
    <tripinfo id="carIn129760:1" depart="57661.00" departLane="653473569#5_1" departPos="5.10" departSpeed="0.00" departDelay="0.80" arrival="57687.00" arrivalLane="124812857#0_1" arrivalPos="143.49" arrivalSpeed="11.58" duration="26.00" routeLength="239.18" waitingTime="0.00" waitingCount="0" stopTime="0.00" timeLoss="5.37" rerouteNo="1" devices="tripinfo_carIn129760:1 routing_carIn129760:1" vType="default_016" speedFactor="0.88" vaporized=""/>
    <tripinfo id="carIn130142:1" depart="57648.00" departLane="201963537#1_1" departPos="5.10" departSpeed="0.00" departDelay="18.90" arrival="57688.00" arrivalLane="-653473569#5_1" arrivalPos="73.05" arrivalSpeed="17.06" duration="40.00" routeLength="256.07" waitingTime="2.00" waitingCount="1" stopTime="0.00" timeLoss="24.16" rerouteNo="1" devices="tripinfo_carIn130142:1 routing_carIn130142:1" vType="default_015" speedFactor="1.24" vaporized=""/>
    <tripinfo id="carIn26410:1" depart="57655.00" departLane="201963537#1_1" departPos="5.10" departSpeed="0.00" departDelay="22.70" arrival="57688.00" arrivalLane="104012170_1" arrivalPos="109.94" arrivalSpeed="11.83" duration="33.00" routeLength="293.69" waitingTime="0.00" waitingCount="0" stopTime="0.00" timeLoss="8.70" rerouteNo="1" devices="tripinfo_carIn26410:1 routing_carIn26410:1" vType="default_016" speedFactor="0.90" vaporized=""/>
    <tripinfo id="h2215c1:1" depart="57670.00" departLane="104010354_1" departPos="5.10" departSpeed="0.00" departDelay="0.10" arrival="57688.00" arrivalLane="124812857#0_3" arrivalPos="143.49" arrivalSpeed="15.02" duration="18.00" routeLength="211.78" waitingTime="0.00" waitingCount="0" stopTime="0.00" timeLoss="3.47" rerouteNo="0" devices="tripinfo_h2215c1:1 routing_h2215c1:1" vType="default_016" speedFactor="1.12" vaporized=""/>
    <tripinfo id="carIn73466:1" depart="57652.00" departLane="104010354_1" departPos="5.10" departSpeed="0.00" departDelay="3.70" arrival="57689.00" arrivalLane="124812857#0_2" arrivalPos="143.49" arrivalSpeed="12.33" duration="37.00" routeLength="211.78" waitingTime="11.00" waitingCount="1" stopTime="0.00" timeLoss="18.93" rerouteNo="0" devices="tripinfo_carIn73466:1 routing_carIn73466:1" vType="default_016" speedFactor="0.89" vaporized=""/>
    <tripinfo id="carIn129626:1" depart="57664.00" departLane="653473569#5_1" departPos="5.10" departSpeed="0.00" departDelay="1.60" arrival="57689.00" arrivalLane="124812857#0_1" arrivalPos="143.49" arrivalSpeed="12.60" duration="25.00" routeLength="239.18" waitingTime="0.00" waitingCount="0" stopTime="0.00" timeLoss="6.40" rerouteNo="1" devices="tripinfo_carIn129626:1 routing_carIn129626:1" vType="default_016" speedFactor="0.96" vaporized=""/>
    <tripinfo id="h21989c1:1" depart="57667.00" departLane="201963537#1_1" departPos="5.10" departSpeed="0.00" departDelay="29.70" arrival="57692.00" arrivalLane="104012170_1" arrivalPos="109.94" arrivalSpeed="13.16" duration="25.00" routeLength="293.69" waitingTime="0.00" waitingCount="0" stopTime="0.00" timeLoss="3.94" rerouteNo="1" devices="tripinfo_h21989c1:1 routing_h21989c1:1" vType="default_016" speedFactor="1.04" vaporized=""/>
    <tripinfo id="h20539c1:3" depart="57667.00" departLane="653473569#5_1" departPos="5.10" departSpeed="0.00" departDelay="2.20" arrival="57692.00" arrivalLane="124812857#0_1" arrivalPos="143.49" arrivalSpeed="14.71" duration="25.00" routeLength="239.18" waitingTime="0.00" waitingCount="0" stopTime="0.00" timeLoss="8.14" rerouteNo="1" devices="tripinfo_h20539c1:3 routing_h20539c1:3" vType="default_016" speedFactor="1.07" vaporized=""/>
    <tripinfo id="carIn102740:1" depart="57676.00" departLane="104010354_1" departPos="5.10" departSpeed="0.00" departDelay="0.50" arrival="57696.00" arrivalLane="124812857#0_2" arrivalPos="143.49" arrivalSpeed="12.77" duration="20.00" routeLength="211.78" waitingTime="0.00" waitingCount="0" stopTime="0.00" timeLoss="3.84" rerouteNo="0" devices="tripinfo_carIn102740:1 routing_carIn102740:1" vType="default_016" speedFactor="0.95" vaporized=""/>
    <tripinfo id="randUni34730:1" depart="57650.00" departLane="201963537#1_1" departPos="5.10" departSpeed="0.00" departDelay="19.40" arrival="57701.00" arrivalLane="-653473569#5_1" arrivalPos="73.05" arrivalSpeed="12.37" duration="51.00" routeLength="256.07" waitingTime="6.00" waitingCount="1" stopTime="0.00" timeLoss="29.10" rerouteNo="1" devices="tripinfo_randUni34730:1 routing_randUni34730:1" vType="random_016" speedFactor="0.90" vaporized=""/>
    <tripinfo id="carIn35345:1" depart="57679.00" departLane="104010354_1" departPos="5.10" departSpeed="0.00" departDelay="1.10" arrival="57701.00" arrivalLane="124812857#0_2" arrivalPos="143.49" arrivalSpeed="11.93" duration="22.00" routeLength="211.78" waitingTime="0.00" waitingCount="0" stopTime="0.00" timeLoss="3.61" rerouteNo="0" devices="tripinfo_carIn35345:1 routing_carIn35345:1" vType="default_016" speedFactor="0.87" vaporized=""/>
    <tripinfo id="h14257c2:1" depart="57654.00" departLane="201963537#1_1" departPos="5.10" departSpeed="0.00" departDelay="21.80" arrival="57702.00" arrivalLane="-653473569#5_1" arrivalPos="73.05" arrivalSpeed="14.52" duration="48.00" routeLength="256.07" waitingTime="5.00" waitingCount="1" stopTime="0.00" timeLoss="31.16" rerouteNo="1" devices="tripinfo_h14257c2:1 routing_h14257c2:1" vType="default_016" speedFactor="1.14" vaporized=""/>
    <tripinfo id="carIn107084:1" depart="57658.00" departLane="201963537#1_1" departPos="5.10" departSpeed="0.00" departDelay="24.20" arrival="57704.00" arrivalLane="-653473569#5_1" arrivalPos="73.05" arrivalSpeed="13.49" duration="46.00" routeLength="256.07" waitingTime="5.00" waitingCount="1" stopTime="0.00" timeLoss="27.54" rerouteNo="1" devices="tripinfo_carIn107084:1 routing_carIn107084:1" vType="default_016" speedFactor="1.05" vaporized=""/>
    <tripinfo id="carIn77943:1" depart="57662.00" departLane="201963537#1_1" departPos="5.10" departSpeed="0.00" departDelay="26.60" arrival="57706.00" arrivalLane="-653473569#5_1" arrivalPos="73.05" arrivalSpeed="13.45" duration="44.00" routeLength="256.07" waitingTime="5.00" waitingCount="1" stopTime="0.00" timeLoss="24.39" rerouteNo="1" devices="tripinfo_carIn77943:1 routing_carIn77943:1" vType="default_016" speedFactor="1.00" vaporized=""/>
    <tripinfo id="carIn81046:1" depart="57666.00" departLane="201963537#1_1" departPos="5.10" departSpeed="0.00" departDelay="29.00" arrival="57709.00" arrivalLane="-653473569#5_1" arrivalPos="73.05" arrivalSpeed="12.93" duration="43.00" routeLength="256.07" waitingTime="4.00" waitingCount="1" stopTime="0.00" timeLoss="22.63" rerouteNo="1" devices="tripinfo_carIn81046:1 routing_carIn81046:1" vType="default_016" speedFactor="0.97" vaporized=""/>
    <tripinfo id="h3139c1:3" depart="57684.00" departLane="104010354_1" departPos="5.10" departSpeed="0.00" departDelay="0.70" arrival="57719.00" arrivalLane="124812857#0_2" arrivalPos="143.49" arrivalSpeed="10.26" duration="35.00" routeLength="211.78" waitingTime="9.00" waitingCount="1" stopTime="0.00" timeLoss="16.52" rerouteNo="0" devices="tripinfo_h3139c1:3 routing_h3139c1:3" vType="default_016" speedFactor="0.83" vaporized=""/>
    <tripinfo id="carIn91254:1" depart="57696.00" departLane="653473569#5_1" departPos="5.10" departSpeed="0.00" departDelay="0.10" arrival="57720.00" arrivalLane="124812857#0_1" arrivalPos="143.49" arrivalSpeed="12.95" duration="24.00" routeLength="239.18" waitingTime="0.00" waitingCount="0" stopTime="0.00" timeLoss="5.08" rerouteNo="1" devices="tripinfo_carIn91254:1 routing_carIn91254:1" vType="default_016" speedFactor="0.99" vaporized=""/>
    <tripinfo id="h15382c1:3" depart="57670.00" departLane="201963537#1_1" departPos="5.10" departSpeed="0.00" departDelay="30.90" arrival="57721.00" arrivalLane="-653473569#5_1" arrivalPos="73.05" arrivalSpeed="14.54" duration="51.00" routeLength="256.07" waitingTime="5.00" waitingCount="2" stopTime="0.00" timeLoss="32.99" rerouteNo="1" devices="tripinfo_h15382c1:3 routing_h15382c1:3" vType="default_016" speedFactor="1.09" vaporized=""/>
    <tripinfo id="carIn26407:1" depart="57687.00" departLane="104010354_1" departPos="5.10" departSpeed="0.00" departDelay="1.00" arrival="57721.00" arrivalLane="124812857#0_2" arrivalPos="143.49" arrivalSpeed="10.27" duration="34.00" routeLength="211.78" waitingTime="7.00" waitingCount="1" stopTime="0.00" timeLoss="13.37" rerouteNo="0" devices="tripinfo_carIn26407:1 routing_carIn26407:1" vType="default_016" speedFactor="0.76" vaporized=""/>
    <tripinfo id="randUni10474:1" depart="57671.00" departLane="201963537#1_1" departPos="5.10" departSpeed="0.00" departDelay="31.00" arrival="57723.00" arrivalLane="-653473569#5_1" arrivalPos="73.05" arrivalSpeed="14.17" duration="52.00" routeLength="256.07" waitingTime="4.00" waitingCount="2" stopTime="0.00" timeLoss="33.72" rerouteNo="1" devices="tripinfo_randUni10474:1 routing_randUni10474:1" vType="random_016" speedFactor="1.09" vaporized=""/>
    <tripinfo id="carIn78692:1" depart="57702.00" departLane="104010354_1" departPos="5.10" departSpeed="0.00" departDelay="0.00" arrival="57723.00" arrivalLane="124812857#0_2" arrivalPos="143.49" arrivalSpeed="13.19" duration="21.00" routeLength="211.78" waitingTime="0.00" waitingCount="0" stopTime="0.00" timeLoss="6.24" rerouteNo="0" devices="tripinfo_carIn78692:1 routing_carIn78692:1" vType="default_016" speedFactor="1.08" vaporized=""/>
    <tripinfo id="carIn56649:1" depart="57672.00" departLane="201963537#1_1" departPos="5.10" departSpeed="0.00" departDelay="29.80" arrival="57735.00" arrivalLane="-653473569#5_1" arrivalPos="73.05" arrivalSpeed="12.66" duration="63.00" routeLength="256.07" waitingTime="13.00" waitingCount="3" stopTime="0.00" timeLoss="42.69" rerouteNo="1" devices="tripinfo_carIn56649:1 routing_carIn56649:1" vType="default_016" speedFactor="0.98" vaporized=""/>
    <tripinfo id="carIn38625:1" depart="57674.00" departLane="201963537#1_1" departPos="5.10" departSpeed="0.00" departDelay="31.70" arrival="57736.00" arrivalLane="-653473569#5_1" arrivalPos="73.05" arrivalSpeed="13.52" duration="62.00" routeLength="256.07" waitingTime="11.00" waitingCount="3" stopTime="0.00" timeLoss="43.97" rerouteNo="1" devices="tripinfo_carIn38625:1 routing_carIn38625:1" vType="default_016" speedFactor="1.07" vaporized=""/>
    <tripinfo id="carIn100220:1" depart="57705.00" departLane="201963537#1_1" departPos="5.10" departSpeed="0.00" departDelay="29.70" arrival="57736.00" arrivalLane="104012170_2" arrivalPos="109.94" arrivalSpeed="14.10" duration="31.00" routeLength="293.69" waitingTime="1.00" waitingCount="1" stopTime="0.00" timeLoss="11.28" rerouteNo="1" devices="tripinfo_carIn100220:1 routing_carIn100220:1" vType="default_016" speedFactor="1.09" vaporized=""/>
    <tripinfo id="h21130c2:1" depart="57697.00" departLane="201963537#1_1" departPos="5.10" departSpeed="0.00" departDelay="33.60" arrival="57737.00" arrivalLane="104012170_1" arrivalPos="109.94" arrivalSpeed="13.80" duration="40.00" routeLength="293.69" waitingTime="8.00" waitingCount="1" stopTime="0.00" timeLoss="18.22" rerouteNo="1" devices="tripinfo_h21130c2:1 routing_h21130c2:1" vType="default_016" speedFactor="1.00" vaporized=""/>
    <tripinfo id="carIn17767:1" depart="57677.00" departLane="201963537#1_1" departPos="5.10" departSpeed="0.00" departDelay="33.30" arrival="57739.00" arrivalLane="-653473569#5_1" arrivalPos="73.05" arrivalSpeed="12.39" duration="62.00" routeLength="256.07" waitingTime="10.00" waitingCount="2" stopTime="0.00" timeLoss="41.58" rerouteNo="1" devices="tripinfo_carIn17767:1 routing_carIn17767:1" vType="default_016" speedFactor="0.95" vaporized=""/>
    <tripinfo id="60.39" depart="57701.00" departLane="201963537#1_1" departPos="12.10" departSpeed="0.00" departDelay="32.50" arrival="57743.00" arrivalLane="104012170_1" arrivalPos="109.94" arrivalSpeed="13.33" duration="42.00" routeLength="286.69" waitingTime="4.00" waitingCount="1" stopTime="0.00" timeLoss="20.42" rerouteNo="1" devices="tripinfo_60.39 routing_60.39" vType="bus" speedFactor="1.00" vaporized=""/>
    <tripinfo id="carIn96193:1" depart="57714.00" departLane="104010354_1" departPos="5.10" departSpeed="0.00" departDelay="0.90" arrival="57746.00" arrivalLane="124812857#0_2" arrivalPos="143.49" arrivalSpeed="16.12" duration="32.00" routeLength="211.78" waitingTime="9.00" waitingCount="1" stopTime="0.00" timeLoss="18.79" rerouteNo="0" devices="tripinfo_carIn96193:1 routing_carIn96193:1" vType="default_016" speedFactor="1.17" vaporized=""/>
    <tripinfo id="carIn98489:1" depart="57717.00" departLane="104010354_1" departPos="5.10" departSpeed="0.00" departDelay="0.60" arrival="57749.00" arrivalLane="124812857#0_3" arrivalPos="143.49" arrivalSpeed="11.89" duration="32.00" routeLength="211.78" waitingTime="5.00" waitingCount="1" stopTime="0.00" timeLoss="13.85" rerouteNo="0" devices="tripinfo_carIn98489:1 routing_carIn98489:1" vType="default_016" speedFactor="0.87" vaporized=""/>
    <tripinfo id="h4745c1:1" depart="57726.00" departLane="104010354_1" departPos="5.10" departSpeed="0.00" departDelay="0.40" arrival="57749.00" arrivalLane="124812857#0_2" arrivalPos="143.49" arrivalSpeed="13.09" duration="23.00" routeLength="211.78" waitingTime="0.00" waitingCount="0" stopTime="0.00" timeLoss="7.94" rerouteNo="0" devices="tripinfo_h4745c1:1 routing_h4745c1:1" vType="default_016" speedFactor="1.03" vaporized=""/>
    <tripinfo id="carIn44740:1" depart="57708.00" departLane="201963537#1_1" departPos="5.10" departSpeed="0.00" departDelay="32.60" arrival="57750.00" arrivalLane="-653473569#5_1" arrivalPos="73.05" arrivalSpeed="14.46" duration="42.00" routeLength="256.07" waitingTime="5.00" waitingCount="4" stopTime="0.00" timeLoss="22.83" rerouteNo="1" devices="tripinfo_carIn44740:1 routing_carIn44740:1" vType="default_016" speedFactor="1.04" vaporized=""/>
    <tripinfo id="carIn106797:1" depart="57726.00" departLane="653473569#5_1" departPos="5.10" departSpeed="0.00" departDelay="1.00" arrival="57750.00" arrivalLane="124812857#0_1" arrivalPos="143.49" arrivalSpeed="12.63" duration="24.00" routeLength="239.18" waitingTime="0.00" waitingCount="0" stopTime="0.00" timeLoss="5.60" rerouteNo="1" devices="tripinfo_carIn106797:1 routing_carIn106797:1" vType="default_016" speedFactor="0.98" vaporized=""/>