<?xml version="1.0" encoding="UTF-8"?>

<!-- generated on 2025-04-21 21:21:24 by Eclipse SUMO sumo Version 1.12.0
<configuration xmlns:xsi="http://www.w3.org/2001/XMLSchema-instance" xsi:noNamespaceSchemaLocation="http://sumo.dlr.de/xsd/sumoConfiguration.xsd">

    <input>
        <net-file value="/home/dale/Desktop/RESCO/resco_benchmark/environments/cologne1/cologne1.net.xml"/>
        <route-files value="/home/dale/Desktop/RESCO/resco_benchmark/environments/cologne1/cologne1.rou.xml"/>
    </input>

    <output>
        <tripinfo-output value="/home/dale/Desktop/RESCO/results/IDQN-tr0-cologne1-0-drq_norm-wait_norm/tripinfo_3.xml"/>
        <tripinfo-output.write-unfinished value="true"/>
    </output>

    <time>
        <begin value="25200"/>
        <end value="28800"/>
    </time>

    <processing>
        <time-to-teleport value="-1"/>
    </processing>

    <report>
        <no-warnings value="true"/>
        <no-step-log value="true"/>
    </report>

    <traci_server>
        <remote-port value="45751"/>
    </traci_server>

    <random_number>
        <random value="true"/>
    </random_number>

</configuration>
-->

<tripinfos xmlns:xsi="http://www.w3.org/2001/XMLSchema-instance" xsi:noNamespaceSchemaLocation="http://sumo.dlr.de/xsd/tripinfo_file.xsd">
    <tripinfo id="124779_406_0" depart="25205.00" departLane="28198821#3_0" departPos="4.40" departSpeed="0.00" departDelay="0.00" arrival="25229.00" arrivalLane="32038051#0_1" arrivalPos="89.25" arrivalSpeed="18.16" duration="24.00" routeLength="170.57" waitingTime="3.00" waitingCount="1" stopTime="0.00" timeLoss="12.83" rerouteNo="0" devices="tripinfo_124779_406_0 routing_124779_406_0" vType="pkw" speedFactor="0.97" vaporized=""/>
    <tripinfo id="98305_395_0" depart="25211.00" departLane="28198821#3_0" departPos="4.40" departSpeed="0.00" departDelay="0.00" arrival="25239.00" arrivalLane="32038051#0_1" arrivalPos="89.25" arrivalSpeed="21.37" duration="28.00" routeLength="170.57" waitingTime="5.00" waitingCount="1" stopTime="0.00" timeLoss="18.68" rerouteNo="0" devices="tripinfo_98305_395_0 routing_98305_395_0" vType="pkw" speedFactor="1.14" vaporized=""/>
    <tripinfo id="102535_396_0" depart="25218.00" departLane="28198821#3_0" departPos="4.40" departSpeed="0.00" departDelay="0.00" arrival="25242.00" arrivalLane="32038051#0_1" arrivalPos="89.25" arrivalSpeed="15.89" duration="24.00" routeLength="170.57" waitingTime="2.00" waitingCount="1" stopTime="0.00" timeLoss="11.81" rerouteNo="0" devices="tripinfo_102535_396_0 routing_102535_396_0" vType="pkw" speedFactor="0.88" vaporized=""/>
    <tripinfo id="147209_416_0" depart="25220.00" departLane="28198821#3_0" departPos="4.40" departSpeed="0.00" departDelay="0.00" arrival="25243.00" arrivalLane="32038051#0_1" arrivalPos="89.25" arrivalSpeed="19.34" duration="23.00" routeLength="170.57" waitingTime="1.00" waitingCount="1" stopTime="0.00" timeLoss="12.74" rerouteNo="0" devices="tripinfo_147209_416_0 routing_147209_416_0" vType="pkw" speedFactor="1.01" vaporized=""/>
    <tripinfo id="151372_418_0" depart="25207.00" departLane="130165204_0" departPos="4.40" departSpeed="0.00" departDelay="0.00" arrival="25249.00" arrivalLane="32038051#0_1" arrivalPos="89.25" arrivalSpeed="15.96" duration="42.00" routeLength="410.03" waitingTime="0.00" waitingCount="0" stopTime="0.00" timeLoss="11.20" rerouteNo="1" devices="tripinfo_151372_418_0 routing_151372_418_0" vType="pkw" speedFactor="0.87" vaporized=""/>
    <tripinfo id="149029_417_0" depart="25236.00" departLane="27115123#2_0" departPos="4.40" departSpeed="0.00" departDelay="0.00" arrival="25250.00" arrivalLane="32038051#0_1" arrivalPos="89.25" arrivalSpeed="20.83" duration="14.00" routeLength="196.41" waitingTime="0.00" waitingCount="0" stopTime="0.00" timeLoss="4.56" rerouteNo="1" devices="tripinfo_149029_417_0 routing_149029_417_0" vType="pkw" speedFactor="1.07" vaporized=""/>
    <tripinfo id="123965_406_0" depart="25218.00" departLane="-32038056#3_0" departPos="4.40" departSpeed="0.00" departDelay="0.00" arrival="25258.00" arrivalLane="-28198821#4_0" arrivalPos="57.10" arrivalSpeed="15.68" duration="40.00" routeLength="437.47" waitingTime="2.00" waitingCount="1" stopTime="0.00" timeLoss="12.12" rerouteNo="0" devices="tripinfo_123965_406_0 routing_123965_406_0" vType="pkw" speedFactor="1.16" vaporized=""/>
    <tripinfo id="91582_392_0" depart="25220.00" departLane="-32038056#3_0" departPos="4.40" departSpeed="0.00" departDelay="2.00" arrival="25258.00" arrivalLane="32324544#0_1" arrivalPos="90.48" arrivalSpeed="21.82" duration="38.00" routeLength="465.51" waitingTime="0.00" waitingCount="0" stopTime="0.00" timeLoss="11.85" rerouteNo="0" devices="tripinfo_91582_392_0 routing_91582_392_0" vType="pkw" speedFactor="1.20" vaporized=""/>
    <tripinfo id="126742_407_0" depart="25242.00" departLane="23429231#1_0" departPos="4.40" departSpeed="0.00" departDelay="2.00" arrival="25260.00" arrivalLane="32038051#0_0" arrivalPos="89.25" arrivalSpeed="18.07" duration="18.00" routeLength="203.79" waitingTime="0.00" waitingCount="0" stopTime="0.00" timeLoss="6.80" rerouteNo="0" devices="tripinfo_126742_407_0 routing_126742_407_0" vType="pkw" speedFactor="0.98" vaporized=""/>
    <tripinfo id="102501_396_0" depart="25245.00" departLane="23429231#1_0" departPos="4.40" departSpeed="0.00" departDelay="1.00" arrival="25262.00" arrivalLane="32038051#0_0" arrivalPos="89.25" arrivalSpeed="22.50" duration="17.00" routeLength="203.79" waitingTime="0.00" waitingCount="0" stopTime="0.00" timeLoss="7.67" rerouteNo="0" devices="tripinfo_102501_396_0 routing_102501_396_0" vType="pkw" speedFactor="1.19" vaporized=""/>
    <tripinfo id="121258_405_0" depart="25240.00" departLane="23429231#1_0" departPos="4.40" departSpeed="0.00" departDelay="0.00" arrival="25263.00" arrivalLane="32038051#0_1" arrivalPos="89.25" arrivalSpeed="15.83" duration="23.00" routeLength="203.79" waitingTime="0.00" waitingCount="0" stopTime="0.00" timeLoss="10.01" rerouteNo="0" devices="tripinfo_121258_405_0 routing_121258_405_0" vType="pkw" speedFactor="0.86" vaporized=""/>
    <tripinfo id="120663_405_0" depart="25248.00" departLane="23429231#1_0" departPos="4.40" departSpeed="0.00" departDelay="2.00" arrival="25264.00" arrivalLane="32038051#0_0" arrivalPos="89.25" arrivalSpeed="18.55" duration="16.00" routeLength="203.79" waitingTime="0.00" waitingCount="0" stopTime="0.00" timeLoss="5.58" rerouteNo="0" devices="tripinfo_120663_405_0 routing_120663_405_0" vType="pkw" speedFactor="1.04" vaporized=""/>
    <tripinfo id="113509_402_0" depart="25251.00" departLane="23429231#1_0" departPos="4.40" departSpeed="0.00" departDelay="3.00" arrival="25269.00" arrivalLane="-28198821#4_1" arrivalPos="57.10" arrivalSpeed="10.81" duration="18.00" routeLength="179.90" waitingTime="0.00" waitingCount="0" stopTime="0.00" timeLoss="4.82" rerouteNo="0" devices="tripinfo_113509_402_0 routing_113509_402_0" vType="pkw" speedFactor="0.85" vaporized=""/>
    <tripinfo id="130147_409_0" depart="25253.00" departLane="23429231#1_0" departPos="4.40" departSpeed="0.00" departDelay="2.00" arrival="25270.00" arrivalLane="32038051#0_0" arrivalPos="89.25" arrivalSpeed="17.15" duration="17.00" routeLength="203.79" waitingTime="0.00" waitingCount="0" stopTime="0.00" timeLoss="5.10" rerouteNo="0" devices="tripinfo_130147_409_0 routing_130147_409_0" vType="pkw" speedFactor="0.92" vaporized=""/>
    <tripinfo id="102630_396_0" depart="25256.00" departLane="23429231#1_0" departPos="4.40" departSpeed="0.00" departDelay="4.00" arrival="25272.00" arrivalLane="32038051#0_0" arrivalPos="89.25" arrivalSpeed="20.67" duration="16.00" routeLength="203.79" waitingTime="0.00" waitingCount="0" stopTime="0.00" timeLoss="5.22" rerouteNo="0" devices="tripinfo_102630_396_0 routing_102630_396_0" vType="pkw" speedFactor="1.07" vaporized=""/>
    <tripinfo id="122376_406_0" depart="25258.00" departLane="23429231#1_0" departPos="4.40" departSpeed="0.00" departDelay="4.00" arrival="25274.00" arrivalLane="32038051#0_0" arrivalPos="89.25" arrivalSpeed="22.20" duration="16.00" routeLength="203.79" waitingTime="0.00" waitingCount="0" stopTime="0.00" timeLoss="6.21" rerouteNo="0" devices="tripinfo_122376_406_0 routing_122376_406_0" vType="pkw" speedFactor="1.14" vaporized=""/>
    <tripinfo id="122194_406_0" depart="25261.00" departLane="23429231#1_0" departPos="4.40" departSpeed="0.00" departDelay="6.00" arrival="25292.00" arrivalLane="32038051#0_0" arrivalPos="89.25" arrivalSpeed="19.63" duration="31.00" routeLength="203.79" waitingTime="8.00" waitingCount="1" stopTime="0.00" timeLoss="21.06" rerouteNo="0" devices="tripinfo_122194_406_0 routing_122194_406_0" vType="pkw" speedFactor="1.07" vaporized=""/>
    <tripinfo id="135103_411_0" depart="25264.00" departLane="23429231#1_0" departPos="4.40" departSpeed="0.00" departDelay="8.00" arrival="25293.00" arrivalLane="32038051#0_1" arrivalPos="89.25" arrivalSpeed="18.76" duration="29.00" routeLength="203.79" waitingTime="5.00" waitingCount="1" stopTime="0.00" timeLoss="18.56" rerouteNo="0" devices="tripinfo_135103_411_0 routing_135103_411_0" vType="pkw" speedFactor="1.01" vaporized=""/>
    <tripinfo id="152958_419_0" depart="25267.00" departLane="23429231#1_0" departPos="4.40" departSpeed="0.00" departDelay="10.00" arrival="25294.00" arrivalLane="32038051#0_0" arrivalPos="89.25" arrivalSpeed="18.29" duration="27.00" routeLength="203.79" waitingTime="4.00" waitingCount="1" stopTime="0.00" timeLoss="16.90" rerouteNo="0" devices="tripinfo_152958_419_0 routing_152958_419_0" vType="pkw" speedFactor="1.09" vaporized=""/>
    <tripinfo id="125613_406_0" depart="25269.00" departLane="23429231#1_0" departPos="4.40" departSpeed="0.00" departDelay="11.00" arrival="25295.00" arrivalLane="32038051#0_1" arrivalPos="89.25" arrivalSpeed="19.09" duration="26.00" routeLength="203.79" waitingTime="1.00" waitingCount="1" stopTime="0.00" timeLoss="15.25" rerouteNo="0" devices="tripinfo_125613_406_0 routing_125613_406_0" vType="pkw" speedFactor="1.03" vaporized=""/>
    <tripinfo id="133955_411_0" depart="25273.00" departLane="23429231#1_0" departPos="4.40" departSpeed="0.00" departDelay="14.00" arrival="25296.00" arrivalLane="32038051#0_0" arrivalPos="89.25" arrivalSpeed="19.65" duration="23.00" routeLength="203.79" waitingTime="0.00" waitingCount="0" stopTime="0.00" timeLoss="12.16" rerouteNo="0" devices="tripinfo_133955_411_0 routing_133955_411_0" vType="pkw" speedFactor="1.05" vaporized=""/>
    <tripinfo id="129253_408_0" depart="25275.00" departLane="23429231#1_0" departPos="4.40" departSpeed="0.00" departDelay="15.00" arrival="25296.00" arrivalLane="32038051#0_1" arrivalPos="89.25" arrivalSpeed="20.21" duration="21.00" routeLength="203.79" waitingTime="0.00" waitingCount="0" stopTime="0.00" timeLoss="11.66" rerouteNo="0" devices="tripinfo_129253_408_0 routing_129253_408_0" vType="pkw" speedFactor="1.14" vaporized=""/>
    <tripinfo id="120275_405_0" depart="25278.00" departLane="23429231#1_0" departPos="4.40" departSpeed="0.00" departDelay="17.00" arrival="25297.00" arrivalLane="32038051#0_0" arrivalPos="89.25" arrivalSpeed="16.17" duration="19.00" routeLength="203.79" waitingTime="0.00" waitingCount="0" stopTime="0.00" timeLoss="6.96" rerouteNo="0" devices="tripinfo_120275_405_0 routing_120275_405_0" vType="pkw" speedFactor="0.87" vaporized=""/>
    <tripinfo id="160150_421_0" depart="25223.00" departLane="-32038056#3_0" departPos="4.40" departSpeed="0.00" departDelay="4.00" arrival="25302.00" arrivalLane="32038051#0_0" arrivalPos="89.25" arrivalSpeed="19.36" duration="79.00" routeLength="446.95" waitingTime="39.00" waitingCount="1" stopTime="0.00" timeLoss="50.35" rerouteNo="0" devices="tripinfo_160150_421_0 routing_160150_421_0" vType="pkw" speedFactor="1.07" vaporized=""/>
    <tripinfo id="130602_409_0" depart="25268.00" departLane="-32038056#3_0" departPos="4.40" departSpeed="0.00" departDelay="0.00" arrival="25303.00" arrivalLane="-28198821#4_1" arrivalPos="57.10" arrivalSpeed="13.80" duration="35.00" routeLength="437.47" waitingTime="0.00" waitingCount="0" stopTime="0.00" timeLoss="4.60" rerouteNo="0" devices="tripinfo_130602_409_0 routing_130602_409_0" vType="pkw" speedFactor="1.06" vaporized=""/>
    <tripinfo id="162814_422_0" depart="25233.00" departLane="-32038056#3_0" departPos="4.40" departSpeed="0.00" departDelay="0.00" arrival="25304.00" arrivalLane="32038051#0_0" arrivalPos="89.25" arrivalSpeed="16.18" duration="71.00" routeLength="446.95" waitingTime="25.00" waitingCount="1" stopTime="0.00" timeLoss="36.08" rerouteNo="0" devices="tripinfo_162814_422_0 routing_162814_422_0" vType="pkw" speedFactor="0.87" vaporized=""/>
    <tripinfo id="128446_408_0" depart="25273.00" departLane="-32038056#3_0" departPos="4.40" departSpeed="0.00" departDelay="0.00" arrival="25308.00" arrivalLane="32324544#0_1" arrivalPos="90.48" arrivalSpeed="20.78" duration="35.00" routeLength="465.51" waitingTime="0.00" waitingCount="0" stopTime="0.00" timeLoss="8.78" rerouteNo="0" devices="tripinfo_128446_408_0 routing_128446_408_0" vType="pkw" speedFactor="1.20" vaporized=""/>
    <tripinfo id="83516_390_0" depart="25276.00" departLane="-32038056#3_0" departPos="4.40" departSpeed="0.00" departDelay="1.00" arrival="25311.00" arrivalLane="32324544#0_1" arrivalPos="90.48" arrivalSpeed="20.76" duration="35.00" routeLength="465.51" waitingTime="0.00" waitingCount="0" stopTime="0.00" timeLoss="9.31" rerouteNo="0" devices="tripinfo_83516_390_0 routing_83516_390_0" vType="pkw" speedFactor="1.21" vaporized=""/>
    <tripinfo id="115444_403_0" depart="25294.00" departLane="28198821#3_0" departPos="4.40" departSpeed="0.00" departDelay="0.00" arrival="25312.00" arrivalLane="32038051#0_1" arrivalPos="89.25" arrivalSpeed="15.89" duration="18.00" routeLength="170.57" waitingTime="0.00" waitingCount="0" stopTime="0.00" timeLoss="6.41" rerouteNo="0" devices="tripinfo_115444_403_0 routing_115444_403_0" vType="pkw" speedFactor="0.87" vaporized=""/>
    <tripinfo id="103540_397_0" depart="25300.00" departLane="28198821#3_0" departPos="4.40" departSpeed="0.00" departDelay="0.00" arrival="25318.00" arrivalLane="32038051#0_1" arrivalPos="89.25" arrivalSpeed="19.59" duration="18.00" routeLength="170.57" waitingTime="0.00" waitingCount="0" stopTime="0.00" timeLoss="7.65" rerouteNo="0" devices="tripinfo_103540_397_0 routing_103540_397_0" vType="pkw" speedFactor="1.05" vaporized=""/>
    <tripinfo id="134807_411_0" depart="25281.00" departLane="23429231#1_0" departPos="4.40" departSpeed="0.00" departDelay="19.00" arrival="25323.00" arrivalLane="32324544#0_1" arrivalPos="90.48" arrivalSpeed="17.12" duration="42.00" routeLength="203.50" waitingTime="19.00" waitingCount="1" stopTime="0.00" timeLoss="30.38" rerouteNo="0" devices="tripinfo_134807_411_0 routing_134807_411_0" vType="pkw" speedFactor="0.94" vaporized=""/>
    <tripinfo id="113303_402_0" depart="25284.00" departLane="-32038056#3_0" departPos="4.40" departSpeed="0.00" departDelay="1.00" arrival="25327.00" arrivalLane="32324544#0_1" arrivalPos="90.48" arrivalSpeed="16.77" duration="43.00" routeLength="465.51" waitingTime="1.00" waitingCount="1" stopTime="0.00" timeLoss="7.03" rerouteNo="0" devices="tripinfo_113303_402_0 routing_113303_402_0" vType="pkw" speedFactor="0.87" vaporized=""/>
    <tripinfo id="136082_411_0" depart="25279.00" departLane="-32038056#3_0" departPos="4.40" departSpeed="0.00" departDelay="2.00" arrival="25328.00" arrivalLane="32038051#0_0" arrivalPos="89.25" arrivalSpeed="16.99" duration="49.00" routeLength="446.95" waitingTime="6.00" waitingCount="1" stopTime="0.00" timeLoss="16.25" rerouteNo="0" devices="tripinfo_136082_411_0 routing_136082_411_0" vType="pkw" speedFactor="0.93" vaporized=""/>
    <tripinfo id="85818_390_0" depart="25282.00" departLane="-32038056#3_0" departPos="4.40" departSpeed="0.00" departDelay="2.00" arrival="25330.00" arrivalLane="32038051#0_0" arrivalPos="89.25" arrivalSpeed="16.66" duration="48.00" routeLength="446.95" waitingTime="4.00" waitingCount="1" stopTime="0.00" timeLoss="14.34" rerouteNo="0" devices="tripinfo_85818_390_0 routing_85818_390_0" vType="pkw" speedFactor="0.91" vaporized=""/>
    <tripinfo id="86583_391_0" depart="25289.00" departLane="-32038056#3_0" departPos="4.40" departSpeed="0.00" departDelay="0.00" arrival="25332.00" arrivalLane="32038051#0_0" arrivalPos="89.25" arrivalSpeed="19.63" duration="43.00" routeLength="446.95" waitingTime="2.00" waitingCount="1" stopTime="0.00" timeLoss="14.14" rerouteNo="0" devices="tripinfo_86583_391_0 routing_86583_391_0" vType="pkw" speedFactor="1.08" vaporized=""/>
    <tripinfo id="120878_405_0" depart="25291.00" departLane="-32038056#3_0" departPos="4.40" departSpeed="0.00" departDelay="0.00" arrival="25333.00" arrivalLane="32038051#0_0" arrivalPos="89.25" arrivalSpeed="18.00" duration="42.00" routeLength="446.95" waitingTime="0.00" waitingCount="0" stopTime="0.00" timeLoss="10.53" rerouteNo="0" devices="tripinfo_120878_405_0 routing_120878_405_0" vType="pkw" speedFactor="0.96" vaporized=""/>
    <tripinfo id="85922_391_0" depart="25294.00" departLane="-32038056#3_0" departPos="4.40" departSpeed="0.00" departDelay="1.00" arrival="25335.00" arrivalLane="32038051#0_0" arrivalPos="89.25" arrivalSpeed="20.92" duration="41.00" routeLength="446.95" waitingTime="0.00" waitingCount="0" stopTime="0.00" timeLoss="12.86" rerouteNo="0" devices="tripinfo_85922_391_0 routing_85922_391_0" vType="pkw" speedFactor="1.11" vaporized=""/>
    <tripinfo id="137244_412_0" depart="25298.00" departLane="-32038056#3_0" departPos="4.40" departSpeed="0.00" departDelay="4.00" arrival="25338.00" arrivalLane="-28198821#4_0" arrivalPos="57.10" arrivalSpeed="11.69" duration="40.00" routeLength="437.47" waitingTime="0.00" waitingCount="0" stopTime="0.00" timeLoss="4.58" rerouteNo="0" devices="tripinfo_137244_412_0 routing_137244_412_0" vType="pkw" speedFactor="0.91" vaporized=""/>
    <tripinfo id="162096_421_0" depart="25306.00" departLane="130165204_0" departPos="4.40" departSpeed="0.00" departDelay="0.00" arrival="25341.00" arrivalLane="32038051#0_1" arrivalPos="89.25" arrivalSpeed="19.90" duration="35.00" routeLength="410.03" waitingTime="0.00" waitingCount="0" stopTime="0.00" timeLoss="9.57" rerouteNo="1" devices="tripinfo_162096_421_0 routing_162096_421_0" vType="pkw" speedFactor="1.07" vaporized=""/>
    <tripinfo id="142412_415_0" depart="25307.00" departLane="-32038056#3_0" departPos="4.40" departSpeed="0.00" departDelay="0.00" arrival="25347.00" arrivalLane="-28198821#4_1" arrivalPos="57.10" arrivalSpeed="13.25" duration="40.00" routeLength="437.47" waitingTime="0.00" waitingCount="0" stopTime="0.00" timeLoss="7.94" rerouteNo="0" devices="tripinfo_142412_415_0 routing_142412_415_0" vType="pkw" speedFactor="0.98" vaporized=""/>
    <tripinfo id="118963_405_0" depart="25304.00" departLane="-32038056#3_0" departPos="4.40" departSpeed="0.00" departDelay="0.00" arrival="25348.00" arrivalLane="32038051#0_0" arrivalPos="89.25" arrivalSpeed="18.75" duration="44.00" routeLength="446.95" waitingTime="2.00" waitingCount="1" stopTime="0.00" timeLoss="13.05" rerouteNo="0" devices="tripinfo_118963_405_0 routing_118963_405_0" vType="pkw" speedFactor="0.98" vaporized=""/>
    <tripinfo id="175147_428_0" depart="25324.00" departLane="130165204_0" departPos="4.40" departSpeed="0.00" departDelay="0.00" arrival="25360.00" arrivalLane="32038051#0_1" arrivalPos="89.25" arrivalSpeed="19.95" duration="36.00" routeLength="410.03" waitingTime="0.00" waitingCount="0" stopTime="0.00" timeLoss="12.09" rerouteNo="1" devices="tripinfo_175147_428_0 routing_175147_428_0" vType="pkw" speedFactor="1.12" vaporized=""/>
    <tripinfo id="135201_411_0" depart="25284.00" departLane="23429231#1_0" departPos="4.40" departSpeed="0.00" departDelay="20.00" arrival="25363.00" arrivalLane="32038051#0_0" arrivalPos="89.25" arrivalSpeed="18.58" duration="79.00" routeLength="203.79" waitingTime="55.00" waitingCount="1" stopTime="0.00" timeLoss="68.84" rerouteNo="0" devices="tripinfo_135201_411_0 routing_135201_411_0" vType="pkw" speedFactor="1.08" vaporized=""/>
    <tripinfo id="57065_374_0" depart="25289.00" departLane="23429231#1_0" departPos="4.40" departSpeed="0.00" departDelay="23.00" arrival="25363.00" arrivalLane="32038051#0_1" arrivalPos="89.25" arrivalSpeed="17.36" duration="74.00" routeLength="203.79" waitingTime="45.00" waitingCount="2" stopTime="0.00" timeLoss="62.56" rerouteNo="0" devices="tripinfo_57065_374_0 routing_57065_374_0" vType="pkw" speedFactor="0.96" vaporized=""/>
    <tripinfo id="148629_417_0" depart="25284.00" departLane="27115123#2_0" departPos="4.40" departSpeed="0.00" departDelay="0.00" arrival="25363.00" arrivalLane="32324544#0_0" arrivalPos="90.48" arrivalSpeed="17.65" duration="79.00" routeLength="198.06" waitingTime="56.00" waitingCount="1" stopTime="0.00" timeLoss="67.40" rerouteNo="1" devices="tripinfo_148629_417_0 routing_148629_417_0" vType="pkw" speedFactor="0.95" vaporized=""/>
    <tripinfo id="86189_391_0" depart="25287.00" departLane="23429231#1_0" departPos="4.40" departSpeed="0.00" departDelay="22.00" arrival="25364.00" arrivalLane="32038051#0_0" arrivalPos="89.25" arrivalSpeed="19.55" duration="77.00" routeLength="203.79" waitingTime="53.00" waitingCount="1" stopTime="0.00" timeLoss="66.79" rerouteNo="0" devices="tripinfo_86189_391_0 routing_86189_391_0" vType="pkw" speedFactor="1.03" vaporized=""/>
    <tripinfo id="82015_389_0" depart="25295.00" departLane="23429231#1_0" departPos="4.40" departSpeed="0.00" departDelay="27.00" arrival="25365.00" arrivalLane="32038051#0_1" arrivalPos="89.25" arrivalSpeed="21.23" duration="70.00" routeLength="203.79" waitingTime="40.00" waitingCount="2" stopTime="0.00" timeLoss="59.57" rerouteNo="0" devices="tripinfo_82015_389_0 routing_82015_389_0" vType="pkw" speedFactor="1.10" vaporized=""/>
    <tripinfo id="135431_411_0" depart="25300.00" departLane="23429231#1_0" departPos="4.40" departSpeed="0.00" departDelay="31.00" arrival="25366.00" arrivalLane="32038051#0_1" arrivalPos="89.25" arrivalSpeed="17.59" duration="66.00" routeLength="203.79" waitingTime="37.00" waitingCount="2" stopTime="0.00" timeLoss="54.99" rerouteNo="0" devices="tripinfo_135431_411_0 routing_135431_411_0" vType="pkw" speedFactor="0.97" vaporized=""/>
    <tripinfo id="129519_408_0" depart="25291.00" departLane="23429231#1_0" departPos="4.40" departSpeed="0.00" departDelay="24.00" arrival="25367.00" arrivalLane="32038051#0_0" arrivalPos="89.25" arrivalSpeed="18.86" duration="76.00" routeLength="203.79" waitingTime="49.00" waitingCount="1" stopTime="0.00" timeLoss="64.66" rerouteNo="0" devices="tripinfo_129519_408_0 routing_129519_408_0" vType="pkw" speedFactor="0.99" vaporized=""/>
    <tripinfo id="161721_421_0" depart="25337.00" departLane="130165204_0" departPos="4.40" departSpeed="0.00" departDelay="0.00" arrival="25379.00" arrivalLane="32038051#0_1" arrivalPos="89.25" arrivalSpeed="20.12" duration="42.00" routeLength="410.03" waitingTime="4.00" waitingCount="1" stopTime="0.00" timeLoss="16.33" rerouteNo="1" devices="tripinfo_161721_421_0 routing_161721_421_0" vType="pkw" speedFactor="1.05" vaporized=""/>
    <tripinfo id="138220_412_0" depart="25309.00" departLane="-32038056#3_0" departPos="4.40" departSpeed="0.00" departDelay="0.00" arrival="25388.00" arrivalLane="-28198821#4_0" arrivalPos="57.10" arrivalSpeed="14.06" duration="79.00" routeLength="437.47" waitingTime="35.00" waitingCount="1" stopTime="0.00" timeLoss="48.28" rerouteNo="0" devices="tripinfo_138220_412_0 routing_138220_412_0" vType="pkw" speedFactor="1.04" vaporized=""/>
    <tripinfo id="167799_425_0" depart="25327.00" departLane="-32038056#3_0" departPos="4.40" departSpeed="0.00" departDelay="0.00" arrival="25388.00" arrivalLane="-28198821#4_1" arrivalPos="57.10" arrivalSpeed="13.25" duration="61.00" routeLength="437.47" waitingTime="20.00" waitingCount="1" stopTime="0.00" timeLoss="29.68" rerouteNo="0" devices="tripinfo_167799_425_0 routing_167799_425_0" vType="pkw" speedFactor="1.02" vaporized=""/>
    <tripinfo id="130372_409_0" depart="25329.00" departLane="-32038056#3_0" departPos="4.40" departSpeed="0.00" departDelay="2.00" arrival="25391.00" arrivalLane="32324544#0_1" arrivalPos="90.48" arrivalSpeed="18.11" duration="62.00" routeLength="465.51" waitingTime="17.00" waitingCount="1" stopTime="0.00" timeLoss="28.70" rerouteNo="0" devices="tripinfo_130372_409_0 routing_130372_409_0" vType="pkw" speedFactor="0.96" vaporized=""/>
    <tripinfo id="104806_398_0" depart="25332.00" departLane="-32038056#3_0" departPos="4.40" departSpeed="0.00" departDelay="3.00" arrival="25393.00" arrivalLane="32324544#0_1" arrivalPos="90.48" arrivalSpeed="19.14" duration="61.00" routeLength="465.51" waitingTime="16.00" waitingCount="1" stopTime="0.00" timeLoss="29.20" rerouteNo="0" devices="tripinfo_104806_398_0 routing_104806_398_0" vType="pkw" speedFactor="1.01" vaporized=""/>
    <tripinfo id="136152_411_0" depart="25313.00" departLane="-32038056#3_0" departPos="4.40" departSpeed="0.00" departDelay="0.00" arrival="25402.00" arrivalLane="32038051#0_0" arrivalPos="89.25" arrivalSpeed="19.80" duration="89.00" routeLength="446.95" waitingTime="43.00" waitingCount="2" stopTime="0.00" timeLoss="60.55" rerouteNo="0" devices="tripinfo_136152_411_0 routing_136152_411_0" vType="pkw" speedFactor="1.07" vaporized=""/>
    <tripinfo id="135138_411_0" depart="25351.00" departLane="-32038056#3_0" departPos="4.40" departSpeed="0.00" departDelay="2.00" arrival="25402.00" arrivalLane="-28198821#4_1" arrivalPos="57.10" arrivalSpeed="15.11" duration="51.00" routeLength="437.47" waitingTime="8.00" waitingCount="2" stopTime="0.00" timeLoss="24.06" rerouteNo="0" devices="tripinfo_135138_411_0 routing_135138_411_0" vType="pkw" speedFactor="1.17" vaporized=""/>
    <tripinfo id="122154_406_0" depart="25337.00" departLane="-32038056#3_0" departPos="4.40" departSpeed="0.00" departDelay="0.00" arrival="25405.00" arrivalLane="-28198821#4_0" arrivalPos="57.10" arrivalSpeed="11.75" duration="68.00" routeLength="437.47" waitingTime="19.00" waitingCount="2" stopTime="0.00" timeLoss="33.72" rerouteNo="0" devices="tripinfo_122154_406_0 routing_122154_406_0" vType="pkw" speedFactor="0.94" vaporized=""/>
    <tripinfo id="121091_405_0" depart="25345.00" departLane="-32038056#3_0" departPos="4.40" departSpeed="0.00" departDelay="0.00" arrival="25405.00" arrivalLane="32038051#0_0" arrivalPos="89.25" arrivalSpeed="18.24" duration="60.00" routeLength="446.95" waitingTime="11.00" waitingCount="2" stopTime="0.00" timeLoss="28.03" rerouteNo="0" devices="tripinfo_121091_405_0 routing_121091_405_0" vType="pkw" speedFactor="0.95" vaporized=""/>
    <tripinfo id="150753_418_0" depart="25353.00" departLane="-32038056#3_0" departPos="4.40" departSpeed="0.00" departDelay="2.00" arrival="25405.00" arrivalLane="32324544#0_1" arrivalPos="90.48" arrivalSpeed="19.50" duration="52.00" routeLength="465.51" waitingTime="3.00" waitingCount="1" stopTime="0.00" timeLoss="22.66" rerouteNo="0" devices="tripinfo_150753_418_0 routing_150753_418_0" vType="pkw" speedFactor="1.07" vaporized=""/>
    <tripinfo id="148536_417_0" depart="25361.00" departLane="-32038056#3_0" departPos="4.40" departSpeed="0.00" departDelay="0.00" arrival="25408.00" arrivalLane="32324544#0_1" arrivalPos="90.48" arrivalSpeed="20.23" duration="47.00" routeLength="465.51" waitingTime="1.00" waitingCount="1" stopTime="0.00" timeLoss="16.47" rerouteNo="0" devices="tripinfo_148536_417_0 routing_148536_417_0" vType="pkw" speedFactor="1.05" vaporized=""/>
    <tripinfo id="165043_423_0" depart="25370.00" departLane="-32038056#3_0" departPos="4.40" departSpeed="0.00" departDelay="4.00" arrival="25410.00" arrivalLane="32324544#0_1" arrivalPos="90.48" arrivalSpeed="21.13" duration="40.00" routeLength="465.51" waitingTime="0.00" waitingCount="0" stopTime="0.00" timeLoss="14.74" rerouteNo="0" devices="tripinfo_165043_423_0 routing_165043_423_0" vType="pkw" speedFactor="1.27" vaporized=""/>
    <tripinfo id="169772_426_0" depart="25348.00" departLane="-32038056#3_0" departPos="4.40" departSpeed="0.00" departDelay="1.00" arrival="25439.00" arrivalLane="32038051#0_0" arrivalPos="89.25" arrivalSpeed="16.81" duration="91.00" routeLength="446.95" waitingTime="34.00" waitingCount="3" stopTime="0.00" timeLoss="56.60" rerouteNo="0" devices="tripinfo_169772_426_0 routing_169772_426_0" vType="pkw" speedFactor="0.89" vaporized=""/>
    <tripinfo id="167170_425_0" depart="25368.00" departLane="-32038056#3_0" departPos="4.40" departSpeed="0.00" departDelay="4.00" arrival="25439.00" arrivalLane="-28198821#4_0" arrivalPos="57.10" arrivalSpeed="12.26" duration="71.00" routeLength="437.47" waitingTime="24.00" waitingCount="1" stopTime="0.00" timeLoss="35.47" rerouteNo="0" devices="tripinfo_167170_425_0 routing_167170_425_0" vType="pkw" speedFactor="0.90" vaporized=""/>
    <tripinfo id="136204_411_0" depart="25297.00" departLane="23429231#1_0" departPos="4.40" departSpeed="0.00" departDelay="28.00" arrival="25442.00" arrivalLane="32038051#0_0" arrivalPos="89.25" arrivalSpeed="19.52" duration="145.00" routeLength="203.79" waitingTime="116.00" waitingCount="2" stopTime="0.00" timeLoss="135.28" rerouteNo="0" devices="tripinfo_136204_411_0 routing_136204_411_0" vType="pkw" speedFactor="1.08" vaporized=""/>
    <tripinfo id="125316_406_0" depart="25306.00" departLane="23429231#1_0" departPos="4.40" departSpeed="0.00" departDelay="35.00" arrival="25442.00" arrivalLane="32038051#0_1" arrivalPos="89.25" arrivalSpeed="18.90" duration="136.00" routeLength="203.79" waitingTime="104.00" waitingCount="2" stopTime="0.00" timeLoss="125.35" rerouteNo="0" devices="tripinfo_125316_406_0 routing_125316_406_0" vType="pkw" speedFactor="1.01" vaporized=""/>