<?xml version="1.0" encoding="UTF-8"?>

<!-- generated on 2025-04-21 21:21:59 by Eclipse SUMO sumo Version 1.12.0
<configuration xmlns:xsi="http://www.w3.org/2001/XMLSchema-instance" xsi:noNamespaceSchemaLocation="http://sumo.dlr.de/xsd/sumoConfiguration.xsd">

    <input>
        <net-file value="/home/dale/Desktop/RESCO/resco_benchmark/environments/cologne1/cologne1.net.xml"/>
        <route-files value="/home/dale/Desktop/RESCO/resco_benchmark/environments/cologne1/cologne1.rou.xml"/>
    </input>

    <output>
        <tripinfo-output value="/home/dale/Desktop/RESCO/results/IDQN-tr0-cologne1-0-drq_norm-wait_norm/tripinfo_10.xml"/>
        <tripinfo-output.write-unfinished value="true"/>
    </output>

    <time>
        <begin value="25200"/>
        <end value="28800"/>
    </time>

    <processing>
        <time-to-teleport value="-1"/>
    </processing>

    <report>
        <no-warnings value="true"/>
        <no-step-log value="true"/>
    </report>

    <traci_server>
        <remote-port value="36769"/>
    </traci_server>

    <random_number>
        <random value="true"/>
    </random_number>

</configuration>
-->

<tripinfos xmlns:xsi="http://www.w3.org/2001/XMLSchema-instance" xsi:noNamespaceSchemaLocation="http://sumo.dlr.de/xsd/tripinfo_file.xsd">
    <tripinfo id="124779_406_0" depart="25205.00" departLane="28198821#3_0" departPos="4.40" departSpeed="0.00" departDelay="0.00" arrival="25223.00" arrivalLane="32038051#0_1" arrivalPos="89.25" arrivalSpeed="19.85" duration="18.00" routeLength="170.57" waitingTime="0.00" waitingCount="0" stopTime="0.00" timeLoss="7.30" rerouteNo="0" devices="tripinfo_124779_406_0 routing_124779_406_0" vType="pkw" speedFactor="1.02" vaporized=""/>
    <tripinfo id="98305_395_0" depart="25211.00" departLane="28198821#3_0" departPos="4.40" departSpeed="0.00" departDelay="0.00" arrival="25227.00" arrivalLane="32038051#0_1" arrivalPos="89.25" arrivalSpeed="18.32" duration="16.00" routeLength="170.57" waitingTime="0.00" waitingCount="0" stopTime="0.00" timeLoss="5.54" rerouteNo="0" devices="tripinfo_98305_395_0 routing_98305_395_0" vType="pkw" speedFactor="0.97" vaporized=""/>
    <tripinfo id="102535_396_0" depart="25218.00" departLane="28198821#3_0" departPos="4.40" departSpeed="0.00" departDelay="0.00" arrival="25244.00" arrivalLane="32038051#0_1" arrivalPos="89.25" arrivalSpeed="20.74" duration="26.00" routeLength="170.57" waitingTime="4.00" waitingCount="1" stopTime="0.00" timeLoss="16.23" rerouteNo="0" devices="tripinfo_102535_396_0 routing_102535_396_0" vType="pkw" speedFactor="1.12" vaporized=""/>
    <tripinfo id="147209_416_0" depart="25220.00" departLane="28198821#3_0" departPos="4.40" departSpeed="0.00" departDelay="0.00" arrival="25245.00" arrivalLane="32038051#0_1" arrivalPos="89.25" arrivalSpeed="20.12" duration="25.00" routeLength="170.57" waitingTime="3.00" waitingCount="1" stopTime="0.00" timeLoss="15.28" rerouteNo="0" devices="tripinfo_147209_416_0 routing_147209_416_0" vType="pkw" speedFactor="1.06" vaporized=""/>
    <tripinfo id="151372_418_0" depart="25207.00" departLane="130165204_0" departPos="4.40" departSpeed="0.00" departDelay="0.00" arrival="25249.00" arrivalLane="32038051#0_1" arrivalPos="89.25" arrivalSpeed="17.29" duration="42.00" routeLength="410.03" waitingTime="0.00" waitingCount="0" stopTime="0.00" timeLoss="12.56" rerouteNo="1" devices="tripinfo_151372_418_0 routing_151372_418_0" vType="pkw" speedFactor="0.91" vaporized=""/>
    <tripinfo id="123965_406_0" depart="25218.00" departLane="-32038056#3_0" departPos="4.40" departSpeed="0.00" departDelay="0.00" arrival="25252.00" arrivalLane="-28198821#4_0" arrivalPos="57.10" arrivalSpeed="14.02" duration="34.00" routeLength="437.47" waitingTime="0.00" waitingCount="0" stopTime="0.00" timeLoss="5.20" rerouteNo="0" devices="tripinfo_123965_406_0 routing_123965_406_0" vType="pkw" speedFactor="1.10" vaporized=""/>
    <tripinfo id="160150_421_0" depart="25224.00" departLane="-32038056#3_0" departPos="4.40" departSpeed="0.00" departDelay="5.00" arrival="25257.00" arrivalLane="32038051#0_0" arrivalPos="89.25" arrivalSpeed="19.81" duration="33.00" routeLength="446.95" waitingTime="0.00" waitingCount="0" stopTime="0.00" timeLoss="5.13" rerouteNo="0" devices="tripinfo_160150_421_0 routing_160150_421_0" vType="pkw" speedFactor="1.08" vaporized=""/>
    <tripinfo id="91582_392_0" depart="25221.00" departLane="-32038056#3_0" departPos="4.40" departSpeed="0.00" departDelay="3.00" arrival="25260.00" arrivalLane="32324544#0_1" arrivalPos="90.48" arrivalSpeed="21.44" duration="39.00" routeLength="465.51" waitingTime="0.00" waitingCount="0" stopTime="0.00" timeLoss="9.79" rerouteNo="0" devices="tripinfo_91582_392_0 routing_91582_392_0" vType="pkw" speedFactor="1.10" vaporized=""/>
    <tripinfo id="149029_417_0" depart="25236.00" departLane="27115123#2_0" departPos="4.40" departSpeed="0.00" departDelay="0.00" arrival="25273.00" arrivalLane="32038051#0_1" arrivalPos="89.25" arrivalSpeed="17.21" duration="37.00" routeLength="196.41" waitingTime="14.00" waitingCount="1" stopTime="0.00" timeLoss="25.33" rerouteNo="1" devices="tripinfo_149029_417_0 routing_149029_417_0" vType="pkw" speedFactor="0.91" vaporized=""/>
    <tripinfo id="162814_422_0" depart="25233.00" departLane="-32038056#3_0" departPos="4.40" departSpeed="0.00" departDelay="0.00" arrival="25278.00" arrivalLane="32038051#0_0" arrivalPos="89.25" arrivalSpeed="16.10" duration="45.00" routeLength="446.95" waitingTime="0.00" waitingCount="0" stopTime="0.00" timeLoss="9.42" rerouteNo="0" devices="tripinfo_162814_422_0 routing_162814_422_0" vType="pkw" speedFactor="0.86" vaporized=""/>
    <tripinfo id="121258_405_0" depart="25240.00" departLane="23429231#1_0" departPos="4.40" departSpeed="0.00" departDelay="0.00" arrival="25294.00" arrivalLane="32038051#0_1" arrivalPos="89.25" arrivalSpeed="18.78" duration="54.00" routeLength="203.79" waitingTime="30.00" waitingCount="1" stopTime="0.00" timeLoss="43.15" rerouteNo="0" devices="tripinfo_121258_405_0 routing_121258_405_0" vType="pkw" speedFactor="1.03" vaporized=""/>
    <tripinfo id="126742_407_0" depart="25243.00" departLane="23429231#1_0" departPos="4.40" departSpeed="0.00" departDelay="3.00" arrival="25294.00" arrivalLane="32038051#0_0" arrivalPos="89.25" arrivalSpeed="15.87" duration="51.00" routeLength="203.79" waitingTime="26.00" waitingCount="1" stopTime="0.00" timeLoss="37.85" rerouteNo="0" devices="tripinfo_126742_407_0 routing_126742_407_0" vType="pkw" speedFactor="0.84" vaporized=""/>
    <tripinfo id="102501_396_0" depart="25246.00" departLane="23429231#1_0" departPos="4.40" departSpeed="0.00" departDelay="2.00" arrival="25295.00" arrivalLane="32038051#0_0" arrivalPos="89.25" arrivalSpeed="16.83" duration="49.00" routeLength="203.79" waitingTime="25.00" waitingCount="1" stopTime="0.00" timeLoss="39.24" rerouteNo="0" devices="tripinfo_102501_396_0 routing_102501_396_0" vType="pkw" speedFactor="1.09" vaporized=""/>
    <tripinfo id="120663_405_0" depart="25248.00" departLane="23429231#1_0" departPos="4.40" departSpeed="0.00" departDelay="2.00" arrival="25297.00" arrivalLane="32038051#0_0" arrivalPos="89.25" arrivalSpeed="18.93" duration="49.00" routeLength="203.79" waitingTime="23.00" waitingCount="1" stopTime="0.00" timeLoss="37.74" rerouteNo="0" devices="tripinfo_120663_405_0 routing_120663_405_0" vType="pkw" speedFactor="0.99" vaporized=""/>
    <tripinfo id="113509_402_0" depart="25251.00" departLane="23429231#1_0" departPos="4.40" departSpeed="0.00" departDelay="3.00" arrival="25297.00" arrivalLane="-28198821#4_1" arrivalPos="57.10" arrivalSpeed="9.08" duration="46.00" routeLength="179.90" waitingTime="20.00" waitingCount="1" stopTime="0.00" timeLoss="34.79" rerouteNo="0" devices="tripinfo_113509_402_0 routing_113509_402_0" vType="pkw" speedFactor="0.97" vaporized=""/>
    <tripinfo id="130147_409_0" depart="25254.00" departLane="23429231#1_0" departPos="4.40" departSpeed="0.00" departDelay="3.00" arrival="25297.00" arrivalLane="32038051#0_1" arrivalPos="89.25" arrivalSpeed="20.97" duration="43.00" routeLength="203.79" waitingTime="18.00" waitingCount="1" stopTime="0.00" timeLoss="32.58" rerouteNo="0" devices="tripinfo_130147_409_0 routing_130147_409_0" vType="pkw" speedFactor="1.10" vaporized=""/>
    <tripinfo id="122376_406_0" depart="25259.00" departLane="23429231#1_0" departPos="4.40" departSpeed="0.00" departDelay="5.00" arrival="25312.00" arrivalLane="32038051#0_1" arrivalPos="89.25" arrivalSpeed="17.89" duration="53.00" routeLength="203.79" waitingTime="23.00" waitingCount="2" stopTime="0.00" timeLoss="41.92" rerouteNo="0" devices="tripinfo_122376_406_0 routing_122376_406_0" vType="pkw" speedFactor="0.96" vaporized=""/>
    <tripinfo id="102630_396_0" depart="25257.00" departLane="23429231#1_0" departPos="4.40" departSpeed="0.00" departDelay="5.00" arrival="25313.00" arrivalLane="32038051#0_0" arrivalPos="89.25" arrivalSpeed="20.00" duration="56.00" routeLength="203.79" waitingTime="28.00" waitingCount="2" stopTime="0.00" timeLoss="45.65" rerouteNo="0" devices="tripinfo_102630_396_0 routing_102630_396_0" vType="pkw" speedFactor="1.08" vaporized=""/>
    <tripinfo id="122194_406_0" depart="25262.00" departLane="23429231#1_0" departPos="4.40" departSpeed="0.00" departDelay="7.00" arrival="25314.00" arrivalLane="32038051#0_0" arrivalPos="89.25" arrivalSpeed="17.27" duration="52.00" routeLength="203.79" waitingTime="21.00" waitingCount="2" stopTime="0.00" timeLoss="41.04" rerouteNo="0" devices="tripinfo_122194_406_0 routing_122194_406_0" vType="pkw" speedFactor="0.96" vaporized=""/>
    <tripinfo id="135103_411_0" depart="25265.00" departLane="23429231#1_0" departPos="4.40" departSpeed="0.00" departDelay="9.00" arrival="25314.00" arrivalLane="32038051#0_1" arrivalPos="89.25" arrivalSpeed="17.20" duration="49.00" routeLength="203.79" waitingTime="19.00" waitingCount="3" stopTime="0.00" timeLoss="37.64" rerouteNo="0" devices="tripinfo_135103_411_0 routing_135103_411_0" vType="pkw" speedFactor="0.95" vaporized=""/>
    <tripinfo id="148629_417_0" depart="25284.00" departLane="27115123#2_0" departPos="4.40" departSpeed="0.00" departDelay="0.00" arrival="25314.00" arrivalLane="32324544#0_0" arrivalPos="90.48" arrivalSpeed="19.33" duration="30.00" routeLength="198.06" waitingTime="5.00" waitingCount="1" stopTime="0.00" timeLoss="18.89" rerouteNo="1" devices="tripinfo_148629_417_0 routing_148629_417_0" vType="pkw" speedFactor="1.00" vaporized=""/>
    <tripinfo id="152958_419_0" depart="25268.00" departLane="23429231#1_0" departPos="4.40" departSpeed="0.00" departDelay="11.00" arrival="25316.00" arrivalLane="32038051#0_0" arrivalPos="89.25" arrivalSpeed="19.07" duration="48.00" routeLength="203.79" waitingTime="17.00" waitingCount="3" stopTime="0.00" timeLoss="37.45" rerouteNo="0" devices="tripinfo_152958_419_0 routing_152958_419_0" vType="pkw" speedFactor="1.00" vaporized=""/>
    <tripinfo id="125613_406_0" depart="25271.00" departLane="23429231#1_0" departPos="4.40" departSpeed="0.00" departDelay="13.00" arrival="25316.00" arrivalLane="32038051#0_1" arrivalPos="89.25" arrivalSpeed="18.54" duration="45.00" routeLength="203.79" waitingTime="13.00" waitingCount="2" stopTime="0.00" timeLoss="34.04" rerouteNo="0" devices="tripinfo_125613_406_0 routing_125613_406_0" vType="pkw" speedFactor="1.01" vaporized=""/>
    <tripinfo id="133955_411_0" depart="25274.00" departLane="23429231#1_0" departPos="4.40" departSpeed="0.00" departDelay="15.00" arrival="25318.00" arrivalLane="32038051#0_0" arrivalPos="89.25" arrivalSpeed="16.74" duration="44.00" routeLength="203.79" waitingTime="11.00" waitingCount="2" stopTime="0.00" timeLoss="33.41" rerouteNo="0" devices="tripinfo_133955_411_0 routing_133955_411_0" vType="pkw" speedFactor="1.04" vaporized=""/>
    <tripinfo id="129253_408_0" depart="25277.00" departLane="23429231#1_0" departPos="4.40" departSpeed="0.00" departDelay="17.00" arrival="25318.00" arrivalLane="32038051#0_1" arrivalPos="89.25" arrivalSpeed="16.87" duration="41.00" routeLength="203.79" waitingTime="10.00" waitingCount="2" stopTime="0.00" timeLoss="28.81" rerouteNo="0" devices="tripinfo_129253_408_0 routing_129253_408_0" vType="pkw" speedFactor="0.92" vaporized=""/>
    <tripinfo id="120275_405_0" depart="25279.00" departLane="23429231#1_0" departPos="4.40" departSpeed="0.00" departDelay="18.00" arrival="25319.00" arrivalLane="32038051#0_0" arrivalPos="89.25" arrivalSpeed="19.06" duration="40.00" routeLength="203.79" waitingTime="7.00" waitingCount="1" stopTime="0.00" timeLoss="30.45" rerouteNo="0" devices="tripinfo_120275_405_0 routing_120275_405_0" vType="pkw" speedFactor="1.11" vaporized=""/>
    <tripinfo id="135201_411_0" depart="25284.00" departLane="23429231#1_0" departPos="4.40" departSpeed="0.00" departDelay="20.00" arrival="25321.00" arrivalLane="32038051#0_0" arrivalPos="89.25" arrivalSpeed="17.77" duration="37.00" routeLength="203.79" waitingTime="7.00" waitingCount="1" stopTime="0.00" timeLoss="25.74" rerouteNo="0" devices="tripinfo_135201_411_0 routing_135201_411_0" vType="pkw" speedFactor="0.97" vaporized=""/>
    <tripinfo id="86189_391_0" depart="25287.00" departLane="23429231#1_0" departPos="4.40" departSpeed="0.00" departDelay="22.00" arrival="25321.00" arrivalLane="32038051#0_1" arrivalPos="89.25" arrivalSpeed="20.19" duration="34.00" routeLength="203.79" waitingTime="6.00" waitingCount="1" stopTime="0.00" timeLoss="23.49" rerouteNo="0" devices="tripinfo_86189_391_0 routing_86189_391_0" vType="pkw" speedFactor="1.07" vaporized=""/>
    <tripinfo id="134807_411_0" depart="25282.00" departLane="23429231#1_0" departPos="4.40" departSpeed="0.00" departDelay="20.00" arrival="25322.00" arrivalLane="32324544#0_1" arrivalPos="90.48" arrivalSpeed="20.39" duration="40.00" routeLength="203.50" waitingTime="7.00" waitingCount="2" stopTime="0.00" timeLoss="30.03" rerouteNo="0" devices="tripinfo_134807_411_0 routing_134807_411_0" vType="pkw" speedFactor="1.13" vaporized=""/>
    <tripinfo id="57065_374_0" depart="25289.00" departLane="23429231#1_0" departPos="4.40" departSpeed="0.00" departDelay="23.00" arrival="25323.00" arrivalLane="32038051#0_0" arrivalPos="89.25" arrivalSpeed="17.32" duration="34.00" routeLength="203.79" waitingTime="6.00" waitingCount="1" stopTime="0.00" timeLoss="22.25" rerouteNo="0" devices="tripinfo_57065_374_0 routing_57065_374_0" vType="pkw" speedFactor="0.95" vaporized=""/>
    <tripinfo id="129519_408_0" depart="25292.00" departLane="23429231#1_0" departPos="4.40" departSpeed="0.00" departDelay="25.00" arrival="25323.00" arrivalLane="32038051#0_1" arrivalPos="89.25" arrivalSpeed="19.45" duration="31.00" routeLength="203.79" waitingTime="6.00" waitingCount="1" stopTime="0.00" timeLoss="20.39" rerouteNo="0" devices="tripinfo_129519_408_0 routing_129519_408_0" vType="pkw" speedFactor="1.05" vaporized=""/>
    <tripinfo id="82015_389_0" depart="25294.00" departLane="23429231#1_0" departPos="4.40" departSpeed="0.00" departDelay="26.00" arrival="25324.00" arrivalLane="32038051#0_0" arrivalPos="89.25" arrivalSpeed="17.98" duration="30.00" routeLength="203.79" waitingTime="5.00" waitingCount="1" stopTime="0.00" timeLoss="19.00" rerouteNo="0" devices="tripinfo_82015_389_0 routing_82015_389_0" vType="pkw" speedFactor="0.96" vaporized=""/>
    <tripinfo id="136204_411_0" depart="25297.00" departLane="23429231#1_0" departPos="4.40" departSpeed="0.00" departDelay="28.00" arrival="25325.00" arrivalLane="32038051#0_1" arrivalPos="89.25" arrivalSpeed="16.79" duration="28.00" routeLength="203.79" waitingTime="1.00" waitingCount="1" stopTime="0.00" timeLoss="15.63" rerouteNo="0" devices="tripinfo_136204_411_0 routing_136204_411_0" vType="pkw" speedFactor="0.88" vaporized=""/>
    <tripinfo id="146814_416_0" depart="25302.00" departLane="23429231#1_0" departPos="4.40" departSpeed="0.00" departDelay="31.00" arrival="25326.00" arrivalLane="32038051#0_0" arrivalPos="89.25" arrivalSpeed="17.33" duration="24.00" routeLength="203.79" waitingTime="0.00" waitingCount="0" stopTime="0.00" timeLoss="12.16" rerouteNo="0" devices="tripinfo_146814_416_0 routing_146814_416_0" vType="pkw" speedFactor="0.90" vaporized=""/>
    <tripinfo id="135431_411_0" depart="25299.00" departLane="23429231#1_0" departPos="4.40" departSpeed="0.00" departDelay="30.00" arrival="25327.00" arrivalLane="32038051#0_1" arrivalPos="89.25" arrivalSpeed="16.58" duration="28.00" routeLength="203.79" waitingTime="1.00" waitingCount="1" stopTime="0.00" timeLoss="15.37" rerouteNo="0" devices="tripinfo_135431_411_0 routing_135431_411_0" vType="pkw" speedFactor="0.86" vaporized=""/>
    <tripinfo id="130602_409_0" depart="25268.00" departLane="-32038056#3_0" departPos="4.40" departSpeed="0.00" departDelay="0.00" arrival="25333.00" arrivalLane="-28198821#4_0" arrivalPos="57.10" arrivalSpeed="11.64" duration="65.00" routeLength="437.47" waitingTime="19.00" waitingCount="1" stopTime="0.00" timeLoss="28.11" rerouteNo="0" devices="tripinfo_130602_409_0 routing_130602_409_0" vType="pkw" speedFactor="0.86" vaporized=""/>
    <tripinfo id="128446_408_0" depart="25273.00" departLane="-32038056#3_0" departPos="4.40" departSpeed="0.00" departDelay="0.00" arrival="25335.00" arrivalLane="32324544#0_1" arrivalPos="90.48" arrivalSpeed="19.13" duration="62.00" routeLength="465.51" waitingTime="18.00" waitingCount="1" stopTime="0.00" timeLoss="30.30" rerouteNo="0" devices="tripinfo_128446_408_0 routing_128446_408_0" vType="pkw" speedFactor="1.00" vaporized=""/>
    <tripinfo id="136082_411_0" depart="25278.00" departLane="-32038056#3_0" departPos="4.40" departSpeed="0.00" departDelay="1.00" arrival="25335.00" arrivalLane="32038051#0_0" arrivalPos="89.25" arrivalSpeed="13.85" duration="57.00" routeLength="446.95" waitingTime="5.00" waitingCount="1" stopTime="0.00" timeLoss="16.71" rerouteNo="0" devices="tripinfo_136082_411_0 routing_136082_411_0" vType="pkw" speedFactor="0.76" vaporized=""/>
    <tripinfo id="83516_390_0" depart="25276.00" departLane="-32038056#3_0" departPos="4.40" departSpeed="0.00" departDelay="1.00" arrival="25337.00" arrivalLane="32324544#0_1" arrivalPos="90.48" arrivalSpeed="19.53" duration="61.00" routeLength="465.51" waitingTime="17.00" waitingCount="1" stopTime="0.00" timeLoss="29.95" rerouteNo="0" devices="tripinfo_83516_390_0 routing_83516_390_0" vType="pkw" speedFactor="1.03" vaporized=""/>
    <tripinfo id="85818_390_0" depart="25281.00" departLane="-32038056#3_0" departPos="4.40" departSpeed="0.00" departDelay="1.00" arrival="25337.00" arrivalLane="32038051#0_0" arrivalPos="89.25" arrivalSpeed="18.45" duration="56.00" routeLength="446.95" waitingTime="4.00" waitingCount="1" stopTime="0.00" timeLoss="25.68" rerouteNo="0" devices="tripinfo_85818_390_0 routing_85818_390_0" vType="pkw" speedFactor="1.03" vaporized=""/>
    <tripinfo id="113303_402_0" depart="25284.00" departLane="-32038056#3_0" departPos="4.40" departSpeed="0.00" departDelay="1.00" arrival="25338.00" arrivalLane="32324544#0_1" arrivalPos="90.48" arrivalSpeed="17.54" duration="54.00" routeLength="465.51" waitingTime="9.00" waitingCount="1" stopTime="0.00" timeLoss="21.27" rerouteNo="0" devices="tripinfo_113303_402_0 routing_113303_402_0" vType="pkw" speedFactor="0.96" vaporized=""/>
    <tripinfo id="86583_391_0" depart="25289.00" departLane="-32038056#3_0" departPos="4.40" departSpeed="0.00" departDelay="0.00" arrival="25338.00" arrivalLane="32038051#0_0" arrivalPos="89.25" arrivalSpeed="16.98" duration="49.00" routeLength="446.95" waitingTime="3.00" waitingCount="1" stopTime="0.00" timeLoss="17.45" rerouteNo="0" devices="tripinfo_86583_391_0 routing_86583_391_0" vType="pkw" speedFactor="0.97" vaporized=""/>
    <tripinfo id="120878_405_0" depart="25292.00" departLane="-32038056#3_0" departPos="4.40" departSpeed="0.00" departDelay="1.00" arrival="25340.00" arrivalLane="32038051#0_0" arrivalPos="89.25" arrivalSpeed="18.36" duration="48.00" routeLength="446.95" waitingTime="2.00" waitingCount="1" stopTime="0.00" timeLoss="18.36" rerouteNo="0" devices="tripinfo_120878_405_0 routing_120878_405_0" vType="pkw" speedFactor="1.04" vaporized=""/>
    <tripinfo id="137244_412_0" depart="25297.00" departLane="-32038056#3_0" departPos="4.40" departSpeed="0.00" departDelay="3.00" arrival="25340.00" arrivalLane="-28198821#4_1" arrivalPos="57.10" arrivalSpeed="11.29" duration="43.00" routeLength="437.47" waitingTime="0.00" waitingCount="0" stopTime="0.00" timeLoss="5.18" rerouteNo="0" devices="tripinfo_137244_412_0 routing_137244_412_0" vType="pkw" speedFactor="0.85" vaporized=""/>
    <tripinfo id="85922_391_0" depart="25295.00" departLane="-32038056#3_0" departPos="4.40" departSpeed="0.00" departDelay="2.00" arrival="25341.00" arrivalLane="32038051#0_0" arrivalPos="89.25" arrivalSpeed="19.10" duration="46.00" routeLength="446.95" waitingTime="2.00" waitingCount="1" stopTime="0.00" timeLoss="17.69" rerouteNo="0" devices="tripinfo_85922_391_0 routing_85922_391_0" vType="pkw" speedFactor="1.08" vaporized=""/>
    <tripinfo id="142412_415_0" depart="25307.00" departLane="-32038056#3_0" departPos="4.40" departSpeed="0.00" departDelay="0.00" arrival="25341.00" arrivalLane="-28198821#4_1" arrivalPos="57.10" arrivalSpeed="12.84" duration="34.00" routeLength="437.47" waitingTime="0.00" waitingCount="0" stopTime="0.00" timeLoss="5.69" rerouteNo="0" devices="tripinfo_142412_415_0 routing_142412_415_0" vType="pkw" speedFactor="1.11" vaporized=""/>
    <tripinfo id="118963_405_0" depart="25304.00" departLane="-32038056#3_0" departPos="4.40" departSpeed="0.00" departDelay="0.00" arrival="25343.00" arrivalLane="32038051#0_0" arrivalPos="89.25" arrivalSpeed="19.22" duration="39.00" routeLength="446.95" waitingTime="0.00" waitingCount="0" stopTime="0.00" timeLoss="12.03" rerouteNo="0" devices="tripinfo_118963_405_0 routing_118963_405_0" vType="pkw" speedFactor="1.15" vaporized=""/>
    <tripinfo id="138220_412_0" depart="25309.00" departLane="-32038056#3_0" departPos="4.40" departSpeed="0.00" departDelay="0.00" arrival="25344.00" arrivalLane="-28198821#4_1" arrivalPos="57.10" arrivalSpeed="14.35" duration="35.00" routeLength="437.47" waitingTime="0.00" waitingCount="0" stopTime="0.00" timeLoss="5.25" rerouteNo="0" devices="tripinfo_138220_412_0 routing_138220_412_0" vType="pkw" speedFactor="1.08" vaporized=""/>
    <tripinfo id="115444_403_0" depart="25294.00" departLane="28198821#3_0" departPos="4.40" departSpeed="0.00" departDelay="0.00" arrival="25350.00" arrivalLane="32038051#0_1" arrivalPos="89.25" arrivalSpeed="16.25" duration="56.00" routeLength="170.57" waitingTime="32.00" waitingCount="2" stopTime="0.00" timeLoss="43.81" rerouteNo="0" devices="tripinfo_115444_403_0 routing_115444_403_0" vType="pkw" speedFactor="0.87" vaporized=""/>
    <tripinfo id="103540_397_0" depart="25300.00" departLane="28198821#3_0" departPos="4.40" departSpeed="0.00" departDelay="0.00" arrival="25352.00" arrivalLane="32038051#0_1" arrivalPos="89.25" arrivalSpeed="15.04" duration="52.00" routeLength="170.57" waitingTime="26.00" waitingCount="2" stopTime="0.00" timeLoss="39.62" rerouteNo="0" devices="tripinfo_103540_397_0 routing_103540_397_0" vType="pkw" speedFactor="0.84" vaporized=""/>
    <tripinfo id="136152_411_0" depart="25313.00" departLane="-32038056#3_0" departPos="4.40" departSpeed="0.00" departDelay="0.00" arrival="25355.00" arrivalLane="32038051#0_0" arrivalPos="89.25" arrivalSpeed="15.29" duration="42.00" routeLength="446.95" waitingTime="0.00" waitingCount="0" stopTime="0.00" timeLoss="5.00" rerouteNo="0" devices="tripinfo_136152_411_0 routing_136152_411_0" vType="pkw" speedFactor="0.82" vaporized=""/>
    <tripinfo id="167799_425_0" depart="25327.00" departLane="-32038056#3_0" departPos="4.40" departSpeed="0.00" departDelay="0.00" arrival="25358.00" arrivalLane="-28198821#4_0" arrivalPos="57.10" arrivalSpeed="16.76" duration="31.00" routeLength="437.47" waitingTime="0.00" waitingCount="0" stopTime="0.00" timeLoss="5.22" rerouteNo="0" devices="tripinfo_167799_425_0 routing_167799_425_0" vType="pkw" speedFactor="1.24" vaporized=""/>
    <tripinfo id="130372_409_0" depart="25330.00" departLane="-32038056#3_0" departPos="4.40" departSpeed="0.00" departDelay="3.00" arrival="25366.00" arrivalLane="32324544#0_1" arrivalPos="90.48" arrivalSpeed="20.19" duration="36.00" routeLength="465.51" waitingTime="0.00" waitingCount="0" stopTime="0.00" timeLoss="7.30" rerouteNo="0" devices="tripinfo_130372_409_0 routing_130372_409_0" vType="pkw" speedFactor="1.10" vaporized=""/>
    <tripinfo id="162096_421_0" depart="25306.00" departLane="130165204_0" departPos="4.40" departSpeed="0.00" departDelay="0.00" arrival="25373.00" arrivalLane="32038051#0_1" arrivalPos="89.25" arrivalSpeed="21.50" duration="67.00" routeLength="410.03" waitingTime="28.00" waitingCount="1" stopTime="0.00" timeLoss="42.75" rerouteNo="1" devices="tripinfo_162096_421_0 routing_162096_421_0" vType="pkw" speedFactor="1.12" vaporized=""/>
    <tripinfo id="175147_428_0" depart="25324.00" departLane="130165204_0" departPos="4.40" departSpeed="0.00" departDelay="0.00" arrival="25375.00" arrivalLane="32038051#0_1" arrivalPos="89.25" arrivalSpeed="17.31" duration="51.00" routeLength="410.03" waitingTime="9.00" waitingCount="1" stopTime="0.00" timeLoss="22.77" rerouteNo="1" devices="tripinfo_175147_428_0 routing_175147_428_0" vType="pkw" speedFactor="0.95" vaporized=""/>
    <tripinfo id="161721_421_0" depart="25337.00" departLane="130165204_0" departPos="4.40" departSpeed="0.00" departDelay="0.00" arrival="25378.00" arrivalLane="32038051#0_1" arrivalPos="89.25" arrivalSpeed="17.01" duration="41.00" routeLength="410.03" waitingTime="0.00" waitingCount="0" stopTime="0.00" timeLoss="12.03" rerouteNo="1" devices="tripinfo_161721_421_0 routing_161721_421_0" vType="pkw" speedFactor="0.93" vaporized=""/>
    <tripinfo id="104806_398_0" depart="25332.00" departLane="-32038056#3_0" departPos="4.40" departSpeed="0.00" departDelay="3.00" arrival="25379.00" arrivalLane="32324544#0_1" arrivalPos="90.48" arrivalSpeed="16.64" duration="47.00" routeLength="465.51" waitingTime="1.00" waitingCount="1" stopTime="0.00" timeLoss="12.37" rerouteNo="0" devices="tripinfo_104806_398_0 routing_104806_398_0" vType="pkw" speedFactor="0.91" vaporized=""/>
    <tripinfo id="150753_418_0" depart="25354.00" departLane="-32038056#3_0" departPos="4.40" departSpeed="0.00" departDelay="3.00" arrival="25392.00" arrivalLane="32324544#0_1" arrivalPos="90.48" arrivalSpeed="21.36" duration="38.00" routeLength="465.51" waitingTime="0.00" waitingCount="0" stopTime="0.00" timeLoss="10.84" rerouteNo="0" devices="tripinfo_150753_418_0 routing_150753_418_0" vType="pkw" speedFactor="1.15" vaporized=""/>
    <tripinfo id="135138_411_0" depart="25351.00" departLane="-32038056#3_0" departPos="4.40" departSpeed="0.00" departDelay="2.00" arrival="25403.00" arrivalLane="-28198821#4_1" arrivalPos="57.10" arrivalSpeed="12.01" duration="52.00" routeLength="437.47" waitingTime="4.00" waitingCount="1" stopTime="0.00" timeLoss="15.94" rerouteNo="0" devices="tripinfo_135138_411_0 routing_135138_411_0" vType="pkw" speedFactor="0.90" vaporized=""/>
    <tripinfo id="122154_406_0" depart="25337.00" departLane="-32038056#3_0" departPos="4.40" departSpeed="0.00" departDelay="0.00" arrival="25404.00" arrivalLane="-28198821#4_0" arrivalPos="57.10" arrivalSpeed="10.47" duration="67.00" routeLength="437.47" waitingTime="18.00" waitingCount="1" stopTime="0.00" timeLoss="26.97" rerouteNo="0" devices="tripinfo_122154_406_0 routing_122154_406_0" vType="pkw" speedFactor="0.80" vaporized=""/>
    <tripinfo id="121091_405_0" depart="25345.00" departLane="-32038056#3_0" departPos="4.40" departSpeed="0.00" departDelay="0.00" arrival="25404.00" arrivalLane="32038051#0_0" arrivalPos="89.25" arrivalSpeed="19.43" duration="59.00" routeLength="446.95" waitingTime="15.00" waitingCount="1" stopTime="0.00" timeLoss="28.68" rerouteNo="0" devices="tripinfo_121091_405_0 routing_121091_405_0" vType="pkw" speedFactor="1.00" vaporized=""/>
    <tripinfo id="148536_417_0" depart="25361.00" departLane="-32038056#3_0" departPos="4.40" departSpeed="0.00" departDelay="0.00" arrival="25405.00" arrivalLane="32324544#0_1" arrivalPos="90.48" arrivalSpeed="17.55" duration="44.00" routeLength="465.51" waitingTime="0.00" waitingCount="0" stopTime="0.00" timeLoss="10.06" rerouteNo="0" devices="tripinfo_148536_417_0 routing_148536_417_0" vType="pkw" speedFactor="0.94" vaporized=""/>
    <tripinfo id="169772_426_0" depart="25348.00" departLane="-32038056#3_0" departPos="4.40" departSpeed="0.00" departDelay="1.00" arrival="25406.00" arrivalLane="32038051#0_0" arrivalPos="89.25" arrivalSpeed="17.62" duration="58.00" routeLength="446.95" waitingTime="13.00" waitingCount="1" stopTime="0.00" timeLoss="25.06" rerouteNo="0" devices="tripinfo_169772_426_0 routing_169772_426_0" vType="pkw" speedFactor="0.93" vaporized=""/>
    <tripinfo id="165043_423_0" depart="25370.00" departLane="-32038056#3_0" departPos="4.40" departSpeed="0.00" departDelay="4.00" arrival="25410.00" arrivalLane="32324544#0_1" arrivalPos="90.48" arrivalSpeed="18.86" duration="40.00" routeLength="465.51" waitingTime="1.00" waitingCount="1" stopTime="0.00" timeLoss="9.50" rerouteNo="0" devices="tripinfo_165043_423_0 routing_165043_423_0" vType="pkw" speedFactor="1.03" vaporized=""/>
    <tripinfo id="114183_402_0" depart="25359.00" departLane="-32038056#3_0" departPos="4.40" departSpeed="0.00" departDelay="0.00" arrival="25422.00" arrivalLane="32038051#0_0" arrivalPos="89.25" arrivalSpeed="19.25" duration="63.00" routeLength="446.95" waitingTime="21.00" waitingCount="2" stopTime="0.00" timeLoss="38.92" rerouteNo="0" devices="tripinfo_114183_402_0 routing_114183_402_0" vType="pkw" speedFactor="1.27" vaporized=""/>