<?xml version="1.0" encoding="UTF-8"?>

<!-- generated on 2025-04-21 21:27:03 by Eclipse SUMO sumo Version 1.12.0
<configuration xmlns:xsi="http://www.w3.org/2001/XMLSchema-instance" xsi:noNamespaceSchemaLocation="http://sumo.dlr.de/xsd/sumoConfiguration.xsd">

    <input>
        <net-file value="/home/dale/Desktop/RESCO/resco_benchmark/environments/cologne1/cologne1.net.xml"/>
        <route-files value="/home/dale/Desktop/RESCO/resco_benchmark/environments/cologne1/cologne1.rou.xml"/>
    </input>

    <output>
        <tripinfo-output value="/home/dale/Desktop/RESCO/results/IDQN-tr0-cologne1-0-drq_norm-wait_norm/tripinfo_84.xml"/>
        <tripinfo-output.write-unfinished value="true"/>
    </output>

    <time>
        <begin value="25200"/>
        <end value="28800"/>
    </time>

    <processing>
        <time-to-teleport value="-1"/>
    </processing>

    <report>
        <no-warnings value="true"/>
        <no-step-log value="true"/>
    </report>

    <traci_server>
        <remote-port value="44455"/>
    </traci_server>

    <random_number>
        <random value="true"/>
    </random_number>

</configuration>
-->

<tripinfos xmlns:xsi="http://www.w3.org/2001/XMLSchema-instance" xsi:noNamespaceSchemaLocation="http://sumo.dlr.de/xsd/tripinfo_file.xsd">
    <tripinfo id="124779_406_0" depart="25205.00" departLane="28198821#3_0" departPos="4.40" departSpeed="0.00" departDelay="0.00" arrival="25230.00" arrivalLane="32038051#0_1" arrivalPos="89.25" arrivalSpeed="14.61" duration="25.00" routeLength="170.57" waitingTime="4.00" waitingCount="1" stopTime="0.00" timeLoss="11.04" rerouteNo="0" devices="tripinfo_124779_406_0 routing_124779_406_0" vType="pkw" speedFactor="0.77" vaporized=""/>
    <tripinfo id="98305_395_0" depart="25211.00" departLane="28198821#3_0" departPos="4.40" departSpeed="0.00" departDelay="0.00" arrival="25239.00" arrivalLane="32038051#0_1" arrivalPos="89.25" arrivalSpeed="15.75" duration="28.00" routeLength="170.57" waitingTime="5.00" waitingCount="1" stopTime="0.00" timeLoss="16.43" rerouteNo="0" devices="tripinfo_98305_395_0 routing_98305_395_0" vType="pkw" speedFactor="0.87" vaporized=""/>
    <tripinfo id="151372_418_0" depart="25207.00" departLane="130165204_0" departPos="4.40" departSpeed="0.00" departDelay="0.00" arrival="25241.00" arrivalLane="32038051#0_1" arrivalPos="89.25" arrivalSpeed="18.42" duration="34.00" routeLength="410.03" waitingTime="0.00" waitingCount="0" stopTime="0.00" timeLoss="7.06" rerouteNo="1" devices="tripinfo_151372_418_0 routing_151372_418_0" vType="pkw" speedFactor="0.97" vaporized=""/>
    <tripinfo id="102535_396_0" depart="25218.00" departLane="28198821#3_0" departPos="4.40" departSpeed="0.00" departDelay="0.00" arrival="25249.00" arrivalLane="32038051#0_1" arrivalPos="89.25" arrivalSpeed="21.79" duration="31.00" routeLength="170.57" waitingTime="9.00" waitingCount="2" stopTime="0.00" timeLoss="21.90" rerouteNo="0" devices="tripinfo_102535_396_0 routing_102535_396_0" vType="pkw" speedFactor="1.15" vaporized=""/>
    <tripinfo id="149029_417_0" depart="25236.00" departLane="27115123#2_0" departPos="4.40" departSpeed="0.00" departDelay="0.00" arrival="25251.00" arrivalLane="32038051#0_1" arrivalPos="89.25" arrivalSpeed="19.40" duration="15.00" routeLength="196.41" waitingTime="0.00" waitingCount="0" stopTime="0.00" timeLoss="4.90" rerouteNo="1" devices="tripinfo_149029_417_0 routing_149029_417_0" vType="pkw" speedFactor="1.04" vaporized=""/>
    <tripinfo id="91582_392_0" depart="25220.00" departLane="-32038056#3_0" departPos="4.40" departSpeed="0.00" departDelay="2.00" arrival="25259.00" arrivalLane="32324544#0_1" arrivalPos="90.48" arrivalSpeed="22.34" duration="39.00" routeLength="465.51" waitingTime="1.00" waitingCount="1" stopTime="0.00" timeLoss="13.04" rerouteNo="0" devices="tripinfo_91582_392_0 routing_91582_392_0" vType="pkw" speedFactor="1.23" vaporized=""/>
    <tripinfo id="123965_406_0" depart="25218.00" departLane="-32038056#3_0" departPos="4.40" departSpeed="0.00" departDelay="0.00" arrival="25260.00" arrivalLane="-28198821#4_0" arrivalPos="57.10" arrivalSpeed="11.11" duration="42.00" routeLength="437.47" waitingTime="0.00" waitingCount="0" stopTime="0.00" timeLoss="3.80" rerouteNo="0" devices="tripinfo_123965_406_0 routing_123965_406_0" vType="pkw" speedFactor="0.84" vaporized=""/>
    <tripinfo id="160150_421_0" depart="25223.00" departLane="-32038056#3_0" departPos="4.40" departSpeed="0.00" departDelay="4.00" arrival="25260.00" arrivalLane="32038051#0_0" arrivalPos="89.25" arrivalSpeed="18.58" duration="37.00" routeLength="446.95" waitingTime="0.00" waitingCount="0" stopTime="0.00" timeLoss="5.79" rerouteNo="0" devices="tripinfo_160150_421_0 routing_160150_421_0" vType="pkw" speedFactor="0.98" vaporized=""/>
    <tripinfo id="147209_416_0" depart="25220.00" departLane="28198821#3_0" departPos="4.40" departSpeed="0.00" departDelay="0.00" arrival="25264.00" arrivalLane="32038051#0_1" arrivalPos="89.25" arrivalSpeed="18.37" duration="44.00" routeLength="170.57" waitingTime="11.00" waitingCount="3" stopTime="0.00" timeLoss="33.93" rerouteNo="0" devices="tripinfo_147209_416_0 routing_147209_416_0" vType="pkw" speedFactor="1.00" vaporized=""/>
    <tripinfo id="126742_407_0" depart="25242.00" departLane="23429231#1_0" departPos="4.40" departSpeed="0.00" departDelay="2.00" arrival="25272.00" arrivalLane="32038051#0_1" arrivalPos="89.25" arrivalSpeed="19.60" duration="30.00" routeLength="203.79" waitingTime="5.00" waitingCount="1" stopTime="0.00" timeLoss="19.61" rerouteNo="0" devices="tripinfo_126742_407_0 routing_126742_407_0" vType="pkw" speedFactor="1.01" vaporized=""/>
    <tripinfo id="121258_405_0" depart="25240.00" departLane="23429231#1_0" departPos="4.40" departSpeed="0.00" departDelay="0.00" arrival="25273.00" arrivalLane="32038051#0_0" arrivalPos="89.25" arrivalSpeed="20.56" duration="33.00" routeLength="203.79" waitingTime="10.00" waitingCount="1" stopTime="0.00" timeLoss="23.18" rerouteNo="0" devices="tripinfo_121258_405_0 routing_121258_405_0" vType="pkw" speedFactor="1.14" vaporized=""/>
    <tripinfo id="113509_402_0" depart="25252.00" departLane="23429231#1_0" departPos="4.40" departSpeed="0.00" departDelay="4.00" arrival="25274.00" arrivalLane="-28198821#4_1" arrivalPos="57.10" arrivalSpeed="13.69" duration="22.00" routeLength="179.90" waitingTime="0.00" waitingCount="0" stopTime="0.00" timeLoss="11.46" rerouteNo="0" devices="tripinfo_113509_402_0 routing_113509_402_0" vType="pkw" speedFactor="1.05" vaporized=""/>
    <tripinfo id="102501_396_0" depart="25245.00" departLane="23429231#1_0" departPos="4.40" departSpeed="0.00" departDelay="1.00" arrival="25275.00" arrivalLane="32038051#0_0" arrivalPos="89.25" arrivalSpeed="17.74" duration="30.00" routeLength="203.79" waitingTime="5.00" waitingCount="1" stopTime="0.00" timeLoss="18.48" rerouteNo="0" devices="tripinfo_102501_396_0 routing_102501_396_0" vType="pkw" speedFactor="0.98" vaporized=""/>
    <tripinfo id="120663_405_0" depart="25248.00" departLane="23429231#1_0" departPos="4.40" departSpeed="0.00" departDelay="2.00" arrival="25276.00" arrivalLane="32038051#0_1" arrivalPos="89.25" arrivalSpeed="18.22" duration="28.00" routeLength="203.79" waitingTime="4.00" waitingCount="2" stopTime="0.00" timeLoss="16.75" rerouteNo="0" devices="tripinfo_120663_405_0 routing_120663_405_0" vType="pkw" speedFactor="0.99" vaporized=""/>
    <tripinfo id="130147_409_0" depart="25254.00" departLane="23429231#1_0" departPos="4.40" departSpeed="0.00" departDelay="3.00" arrival="25276.00" arrivalLane="32038051#0_0" arrivalPos="89.25" arrivalSpeed="16.83" duration="22.00" routeLength="203.79" waitingTime="0.00" waitingCount="0" stopTime="0.00" timeLoss="10.53" rerouteNo="0" devices="tripinfo_130147_409_0 routing_130147_409_0" vType="pkw" speedFactor="0.92" vaporized=""/>
    <tripinfo id="102630_396_0" depart="25257.00" departLane="23429231#1_0" departPos="4.40" departSpeed="0.00" departDelay="5.00" arrival="25277.00" arrivalLane="32038051#0_1" arrivalPos="89.25" arrivalSpeed="19.70" duration="20.00" routeLength="203.79" waitingTime="0.00" waitingCount="0" stopTime="0.00" timeLoss="9.92" rerouteNo="0" devices="tripinfo_102630_396_0 routing_102630_396_0" vType="pkw" speedFactor="1.06" vaporized=""/>
    <tripinfo id="122376_406_0" depart="25259.00" departLane="23429231#1_0" departPos="4.40" departSpeed="0.00" departDelay="5.00" arrival="25278.00" arrivalLane="32038051#0_0" arrivalPos="89.25" arrivalSpeed="20.14" duration="19.00" routeLength="203.79" waitingTime="0.00" waitingCount="0" stopTime="0.00" timeLoss="8.50" rerouteNo="0" devices="tripinfo_122376_406_0 routing_122376_406_0" vType="pkw" speedFactor="1.07" vaporized=""/>
    <tripinfo id="122194_406_0" depart="25262.00" departLane="23429231#1_0" departPos="4.40" departSpeed="0.00" departDelay="7.00" arrival="25279.00" arrivalLane="32038051#0_0" arrivalPos="89.25" arrivalSpeed="19.63" duration="17.00" routeLength="203.79" waitingTime="0.00" waitingCount="0" stopTime="0.00" timeLoss="6.53" rerouteNo="0" devices="tripinfo_122194_406_0 routing_122194_406_0" vType="pkw" speedFactor="1.02" vaporized=""/>
    <tripinfo id="135103_411_0" depart="25265.00" departLane="23429231#1_0" departPos="4.40" departSpeed="0.00" departDelay="9.00" arrival="25282.00" arrivalLane="32038051#0_0" arrivalPos="89.25" arrivalSpeed="17.60" duration="17.00" routeLength="203.79" waitingTime="0.00" waitingCount="0" stopTime="0.00" timeLoss="4.81" rerouteNo="0" devices="tripinfo_135103_411_0 routing_135103_411_0" vType="pkw" speedFactor="0.93" vaporized=""/>
    <tripinfo id="152958_419_0" depart="25268.00" departLane="23429231#1_0" departPos="4.40" departSpeed="0.00" departDelay="11.00" arrival="25284.00" arrivalLane="32038051#0_0" arrivalPos="89.25" arrivalSpeed="18.70" duration="16.00" routeLength="203.79" waitingTime="0.00" waitingCount="0" stopTime="0.00" timeLoss="4.63" rerouteNo="0" devices="tripinfo_152958_419_0 routing_152958_419_0" vType="pkw" speedFactor="1.00" vaporized=""/>
    <tripinfo id="125613_406_0" depart="25270.00" departLane="23429231#1_0" departPos="4.40" departSpeed="0.00" departDelay="12.00" arrival="25287.00" arrivalLane="32038051#0_0" arrivalPos="89.25" arrivalSpeed="17.25" duration="17.00" routeLength="203.79" waitingTime="0.00" waitingCount="0" stopTime="0.00" timeLoss="5.18" rerouteNo="0" devices="tripinfo_125613_406_0 routing_125613_406_0" vType="pkw" speedFactor="0.95" vaporized=""/>
    <tripinfo id="162814_422_0" depart="25233.00" departLane="-32038056#3_0" departPos="4.40" departSpeed="0.00" departDelay="0.00" arrival="25292.00" arrivalLane="32038051#0_0" arrivalPos="89.25" arrivalSpeed="16.42" duration="59.00" routeLength="446.95" waitingTime="13.00" waitingCount="1" stopTime="0.00" timeLoss="24.21" rerouteNo="0" devices="tripinfo_162814_422_0 routing_162814_422_0" vType="pkw" speedFactor="0.88" vaporized=""/>
    <tripinfo id="148629_417_0" depart="25284.00" departLane="27115123#2_0" departPos="4.40" departSpeed="0.00" departDelay="0.00" arrival="25299.00" arrivalLane="32324544#0_0" arrivalPos="90.48" arrivalSpeed="20.98" duration="15.00" routeLength="198.06" waitingTime="0.00" waitingCount="0" stopTime="0.00" timeLoss="5.54" rerouteNo="1" devices="tripinfo_148629_417_0 routing_148629_417_0" vType="pkw" speedFactor="1.12" vaporized=""/>
    <tripinfo id="133955_411_0" depart="25273.00" departLane="23429231#1_0" departPos="4.40" departSpeed="0.00" departDelay="14.00" arrival="25303.00" arrivalLane="32038051#0_1" arrivalPos="89.25" arrivalSpeed="18.03" duration="30.00" routeLength="203.79" waitingTime="7.00" waitingCount="1" stopTime="0.00" timeLoss="18.57" rerouteNo="0" devices="tripinfo_133955_411_0 routing_133955_411_0" vType="pkw" speedFactor="0.93" vaporized=""/>
    <tripinfo id="129253_408_0" depart="25276.00" departLane="23429231#1_0" departPos="4.40" departSpeed="0.00" departDelay="16.00" arrival="25303.00" arrivalLane="32038051#0_0" arrivalPos="89.25" arrivalSpeed="14.86" duration="27.00" routeLength="203.79" waitingTime="4.00" waitingCount="1" stopTime="0.00" timeLoss="13.72" rerouteNo="0" devices="tripinfo_129253_408_0 routing_129253_408_0" vType="pkw" speedFactor="0.81" vaporized=""/>
    <tripinfo id="120275_405_0" depart="25279.00" departLane="23429231#1_0" departPos="4.40" departSpeed="0.00" departDelay="18.00" arrival="25305.00" arrivalLane="32038051#0_0" arrivalPos="89.25" arrivalSpeed="17.40" duration="26.00" routeLength="203.79" waitingTime="3.00" waitingCount="1" stopTime="0.00" timeLoss="14.27" rerouteNo="0" devices="tripinfo_120275_405_0 routing_120275_405_0" vType="pkw" speedFactor="0.96" vaporized=""/>
    <tripinfo id="134807_411_0" depart="25282.00" departLane="23429231#1_0" departPos="4.40" departSpeed="0.00" departDelay="20.00" arrival="25305.00" arrivalLane="32324544#0_1" arrivalPos="90.48" arrivalSpeed="20.16" duration="23.00" routeLength="203.50" waitingTime="0.00" waitingCount="0" stopTime="0.00" timeLoss="13.18" rerouteNo="0" devices="tripinfo_134807_411_0 routing_134807_411_0" vType="pkw" speedFactor="1.09" vaporized=""/>
    <tripinfo id="86189_391_0" depart="25286.00" departLane="23429231#1_0" departPos="4.40" departSpeed="0.00" departDelay="21.00" arrival="25305.00" arrivalLane="32038051#0_1" arrivalPos="89.25" arrivalSpeed="20.43" duration="19.00" routeLength="203.79" waitingTime="0.00" waitingCount="0" stopTime="0.00" timeLoss="8.64" rerouteNo="0" devices="tripinfo_86189_391_0 routing_86189_391_0" vType="pkw" speedFactor="1.07" vaporized=""/>
    <tripinfo id="135201_411_0" depart="25284.00" departLane="23429231#1_0" departPos="4.40" departSpeed="0.00" departDelay="20.00" arrival="25306.00" arrivalLane="32038051#0_0" arrivalPos="89.25" arrivalSpeed="18.76" duration="22.00" routeLength="203.79" waitingTime="0.00" waitingCount="0" stopTime="0.00" timeLoss="11.91" rerouteNo="0" devices="tripinfo_135201_411_0 routing_135201_411_0" vType="pkw" speedFactor="1.08" vaporized=""/>
    <tripinfo id="130602_409_0" depart="25268.00" departLane="-32038056#3_0" departPos="4.40" departSpeed="0.00" departDelay="0.00" arrival="25312.00" arrivalLane="-28198821#4_0" arrivalPos="57.10" arrivalSpeed="13.35" duration="44.00" routeLength="437.47" waitingTime="4.00" waitingCount="1" stopTime="0.00" timeLoss="12.85" rerouteNo="0" devices="tripinfo_130602_409_0 routing_130602_409_0" vType="pkw" speedFactor="1.01" vaporized=""/>
    <tripinfo id="128446_408_0" depart="25273.00" departLane="-32038056#3_0" departPos="4.40" departSpeed="0.00" departDelay="0.00" arrival="25313.00" arrivalLane="32324544#0_1" arrivalPos="90.48" arrivalSpeed="21.62" duration="40.00" routeLength="465.51" waitingTime="2.00" waitingCount="1" stopTime="0.00" timeLoss="12.62" rerouteNo="0" devices="tripinfo_128446_408_0 routing_128446_408_0" vType="pkw" speedFactor="1.18" vaporized=""/>
    <tripinfo id="83516_390_0" depart="25276.00" departLane="-32038056#3_0" departPos="4.40" departSpeed="0.00" departDelay="1.00" arrival="25314.00" arrivalLane="32324544#0_1" arrivalPos="90.48" arrivalSpeed="19.98" duration="38.00" routeLength="465.51" waitingTime="0.00" waitingCount="0" stopTime="0.00" timeLoss="8.30" rerouteNo="0" devices="tripinfo_83516_390_0 routing_83516_390_0" vType="pkw" speedFactor="1.06" vaporized=""/>
    <tripinfo id="136082_411_0" depart="25279.00" departLane="-32038056#3_0" departPos="4.40" departSpeed="0.00" departDelay="2.00" arrival="25318.00" arrivalLane="32038051#0_0" arrivalPos="89.25" arrivalSpeed="16.24" duration="39.00" routeLength="446.95" waitingTime="0.00" waitingCount="0" stopTime="0.00" timeLoss="4.95" rerouteNo="0" devices="tripinfo_136082_411_0 routing_136082_411_0" vType="pkw" speedFactor="0.89" vaporized=""/>
    <tripinfo id="85818_390_0" depart="25282.00" departLane="-32038056#3_0" departPos="4.40" departSpeed="0.00" departDelay="2.00" arrival="25320.00" arrivalLane="32038051#0_0" arrivalPos="89.25" arrivalSpeed="20.67" duration="38.00" routeLength="446.95" waitingTime="0.00" waitingCount="0" stopTime="0.00" timeLoss="12.40" rerouteNo="0" devices="tripinfo_85818_390_0 routing_85818_390_0" vType="pkw" speedFactor="1.21" vaporized=""/>
    <tripinfo id="113303_402_0" depart="25284.00" departLane="-32038056#3_0" departPos="4.40" departSpeed="0.00" departDelay="1.00" arrival="25321.00" arrivalLane="32324544#0_1" arrivalPos="90.48" arrivalSpeed="20.97" duration="37.00" routeLength="465.51" waitingTime="0.00" waitingCount="0" stopTime="0.00" timeLoss="8.14" rerouteNo="0" devices="tripinfo_113303_402_0 routing_113303_402_0" vType="pkw" speedFactor="1.08" vaporized=""/>
    <tripinfo id="86583_391_0" depart="25289.00" departLane="-32038056#3_0" departPos="4.40" departSpeed="0.00" departDelay="0.00" arrival="25321.00" arrivalLane="32038051#0_0" arrivalPos="89.25" arrivalSpeed="20.60" duration="32.00" routeLength="446.95" waitingTime="0.00" waitingCount="0" stopTime="0.00" timeLoss="6.09" rerouteNo="0" devices="tripinfo_86583_391_0 routing_86583_391_0" vType="pkw" speedFactor="1.17" vaporized=""/>
    <tripinfo id="120878_405_0" depart="25291.00" departLane="-32038056#3_0" departPos="4.40" departSpeed="0.00" departDelay="0.00" arrival="25323.00" arrivalLane="32038051#0_0" arrivalPos="89.25" arrivalSpeed="21.85" duration="32.00" routeLength="446.95" waitingTime="0.00" waitingCount="0" stopTime="0.00" timeLoss="5.46" rerouteNo="0" devices="tripinfo_120878_405_0 routing_120878_405_0" vType="pkw" speedFactor="1.17" vaporized=""/>
    <tripinfo id="85922_391_0" depart="25294.00" departLane="-32038056#3_0" departPos="4.40" departSpeed="0.00" departDelay="1.00" arrival="25325.00" arrivalLane="32038051#0_0" arrivalPos="89.25" arrivalSpeed="20.89" duration="31.00" routeLength="446.95" waitingTime="0.00" waitingCount="0" stopTime="0.00" timeLoss="4.48" rerouteNo="0" devices="tripinfo_85922_391_0 routing_85922_391_0" vType="pkw" speedFactor="1.13" vaporized=""/>
    <tripinfo id="115444_403_0" depart="25294.00" departLane="28198821#3_0" departPos="4.40" departSpeed="0.00" departDelay="0.00" arrival="25331.00" arrivalLane="32038051#0_1" arrivalPos="89.25" arrivalSpeed="15.77" duration="37.00" routeLength="170.57" waitingTime="14.00" waitingCount="1" stopTime="0.00" timeLoss="24.63" rerouteNo="0" devices="tripinfo_115444_403_0 routing_115444_403_0" vType="pkw" speedFactor="0.84" vaporized=""/>
    <tripinfo id="57065_374_0" depart="25289.00" departLane="23429231#1_0" departPos="4.40" departSpeed="0.00" departDelay="23.00" arrival="25333.00" arrivalLane="32038051#0_0" arrivalPos="89.25" arrivalSpeed="16.64" duration="44.00" routeLength="203.79" waitingTime="21.00" waitingCount="1" stopTime="0.00" timeLoss="31.56" rerouteNo="0" devices="tripinfo_57065_374_0 routing_57065_374_0" vType="pkw" speedFactor="0.89" vaporized=""/>
    <tripinfo id="103540_397_0" depart="25300.00" departLane="28198821#3_0" departPos="4.40" departSpeed="0.00" departDelay="0.00" arrival="25333.00" arrivalLane="32038051#0_1" arrivalPos="89.25" arrivalSpeed="19.00" duration="33.00" routeLength="170.57" waitingTime="12.00" waitingCount="1" stopTime="0.00" timeLoss="22.01" rerouteNo="0" devices="tripinfo_103540_397_0 routing_103540_397_0" vType="pkw" speedFactor="0.99" vaporized=""/>
    <tripinfo id="82015_389_0" depart="25295.00" departLane="23429231#1_0" departPos="4.40" departSpeed="0.00" departDelay="27.00" arrival="25334.00" arrivalLane="32038051#0_0" arrivalPos="89.25" arrivalSpeed="17.63" duration="39.00" routeLength="203.79" waitingTime="16.00" waitingCount="1" stopTime="0.00" timeLoss="27.47" rerouteNo="0" devices="tripinfo_82015_389_0 routing_82015_389_0" vType="pkw" speedFactor="0.91" vaporized=""/>
    <tripinfo id="129519_408_0" depart="25292.00" departLane="23429231#1_0" departPos="4.40" departSpeed="0.00" departDelay="25.00" arrival="25336.00" arrivalLane="32038051#0_1" arrivalPos="89.25" arrivalSpeed="16.43" duration="44.00" routeLength="203.79" waitingTime="18.00" waitingCount="2" stopTime="0.00" timeLoss="31.51" rerouteNo="0" devices="tripinfo_129519_408_0 routing_129519_408_0" vType="pkw" speedFactor="0.91" vaporized=""/>
    <tripinfo id="135431_411_0" depart="25301.00" departLane="23429231#1_0" departPos="4.40" departSpeed="0.00" departDelay="32.00" arrival="25336.00" arrivalLane="32038051#0_0" arrivalPos="89.25" arrivalSpeed="17.56" duration="35.00" routeLength="203.79" waitingTime="13.00" waitingCount="1" stopTime="0.00" timeLoss="25.22" rerouteNo="0" devices="tripinfo_135431_411_0 routing_135431_411_0" vType="pkw" speedFactor="1.09" vaporized=""/>
    <tripinfo id="136204_411_0" depart="25298.00" departLane="23429231#1_0" departPos="4.40" departSpeed="0.00" departDelay="29.00" arrival="25337.00" arrivalLane="32038051#0_1" arrivalPos="89.25" arrivalSpeed="17.73" duration="39.00" routeLength="203.79" waitingTime="13.00" waitingCount="2" stopTime="0.00" timeLoss="27.76" rerouteNo="0" devices="tripinfo_136204_411_0 routing_136204_411_0" vType="pkw" speedFactor="0.97" vaporized=""/>
    <tripinfo id="137244_412_0" depart="25296.00" departLane="-32038056#3_0" departPos="4.40" departSpeed="0.00" departDelay="2.00" arrival="25342.00" arrivalLane="-28198821#4_0" arrivalPos="57.10" arrivalSpeed="13.41" duration="46.00" routeLength="437.47" waitingTime="5.00" waitingCount="1" stopTime="0.00" timeLoss="14.37" rerouteNo="0" devices="tripinfo_137244_412_0 routing_137244_412_0" vType="pkw" speedFactor="1.01" vaporized=""/>
    <tripinfo id="118963_405_0" depart="25304.00" departLane="-32038056#3_0" departPos="4.40" departSpeed="0.00" departDelay="0.00" arrival="25343.00" arrivalLane="32038051#0_0" arrivalPos="89.25" arrivalSpeed="19.35" duration="39.00" routeLength="446.95" waitingTime="0.00" waitingCount="0" stopTime="0.00" timeLoss="9.16" rerouteNo="0" devices="tripinfo_118963_405_0 routing_118963_405_0" vType="pkw" speedFactor="1.02" vaporized=""/>
    <tripinfo id="138220_412_0" depart="25309.00" departLane="-32038056#3_0" departPos="4.40" departSpeed="0.00" departDelay="0.00" arrival="25347.00" arrivalLane="-28198821#4_1" arrivalPos="57.10" arrivalSpeed="12.73" duration="38.00" routeLength="437.47" waitingTime="0.00" waitingCount="0" stopTime="0.00" timeLoss="5.43" rerouteNo="0" devices="tripinfo_138220_412_0 routing_138220_412_0" vType="pkw" speedFactor="0.97" vaporized=""/>
    <tripinfo id="142412_415_0" depart="25307.00" departLane="-32038056#3_0" departPos="4.40" departSpeed="0.00" departDelay="0.00" arrival="25348.00" arrivalLane="-28198821#4_0" arrivalPos="57.10" arrivalSpeed="11.37" duration="41.00" routeLength="437.47" waitingTime="0.00" waitingCount="0" stopTime="0.00" timeLoss="4.73" rerouteNo="0" devices="tripinfo_142412_415_0 routing_142412_415_0" vType="pkw" speedFactor="0.88" vaporized=""/>
    <tripinfo id="146814_416_0" depart="25304.00" departLane="23429231#1_0" departPos="4.40" departSpeed="0.00" departDelay="33.00" arrival="25353.00" arrivalLane="32038051#0_1" arrivalPos="89.25" arrivalSpeed="18.68" duration="49.00" routeLength="203.79" waitingTime="18.00" waitingCount="2" stopTime="0.00" timeLoss="38.17" rerouteNo="0" devices="tripinfo_146814_416_0 routing_146814_416_0" vType="pkw" speedFactor="0.99" vaporized=""/>
    <tripinfo id="125316_406_0" depart="25307.00" departLane="23429231#1_0" departPos="4.40" departSpeed="0.00" departDelay="36.00" arrival="25353.00" arrivalLane="32038051#0_0" arrivalPos="89.25" arrivalSpeed="20.07" duration="46.00" routeLength="203.79" waitingTime="18.00" waitingCount="2" stopTime="0.00" timeLoss="35.28" rerouteNo="0" devices="tripinfo_125316_406_0 routing_125316_406_0" vType="pkw" speedFactor="1.06" vaporized=""/>
    <tripinfo id="118286_405_0" depart="25310.00" departLane="23429231#1_0" departPos="4.40" departSpeed="0.00" departDelay="37.00" arrival="25355.00" arrivalLane="32038051#0_1" arrivalPos="89.25" arrivalSpeed="16.98" duration="45.00" routeLength="203.79" waitingTime="12.00" waitingCount="2" stopTime="0.00" timeLoss="33.04" rerouteNo="0" devices="tripinfo_118286_405_0 routing_118286_405_0" vType="pkw" speedFactor="0.92" vaporized=""/>
    <tripinfo id="134435_411_0" depart="25313.00" departLane="23429231#1_0" departPos="4.40" departSpeed="0.00" departDelay="40.00" arrival="25355.00" arrivalLane="32038051#0_0" arrivalPos="89.25" arrivalSpeed="21.14" duration="42.00" routeLength="203.79" waitingTime="14.00" waitingCount="2" stopTime="0.00" timeLoss="31.86" rerouteNo="0" devices="tripinfo_134435_411_0 routing_134435_411_0" vType="pkw" speedFactor="1.13" vaporized=""/>
    <tripinfo id="108236_400_0" depart="25315.00" departLane="23429231#1_0" departPos="4.40" departSpeed="0.00" departDelay="41.00" arrival="25356.00" arrivalLane="32038051#0_1" arrivalPos="89.25" arrivalSpeed="16.69" duration="41.00" routeLength="203.79" waitingTime="8.00" waitingCount="1" stopTime="0.00" timeLoss="29.56" rerouteNo="0" devices="tripinfo_108236_400_0 routing_108236_400_0" vType="pkw" speedFactor="0.92" vaporized=""/>
    <tripinfo id="146536_416_0" depart="25318.00" departLane="23429231#1_0" departPos="4.40" departSpeed="0.00" departDelay="43.00" arrival="25356.00" arrivalLane="32038051#0_0" arrivalPos="89.25" arrivalSpeed="16.83" duration="38.00" routeLength="203.79" waitingTime="9.00" waitingCount="1" stopTime="0.00" timeLoss="28.00" rerouteNo="0" devices="tripinfo_146536_416_0 routing_146536_416_0" vType="pkw" speedFactor="1.05" vaporized=""/>
    <tripinfo id="110905_401_0" depart="25321.00" departLane="23429231#1_0" departPos="4.40" departSpeed="0.00" departDelay="45.00" arrival="25358.00" arrivalLane="32038051#0_1" arrivalPos="89.25" arrivalSpeed="17.85" duration="37.00" routeLength="203.79" waitingTime="8.00" waitingCount="1" stopTime="0.00" timeLoss="25.83" rerouteNo="0" devices="tripinfo_110905_401_0 routing_110905_401_0" vType="pkw" speedFactor="0.96" vaporized=""/>
    <tripinfo id="118931_405_0" depart="25323.00" departLane="23429231#1_0" departPos="4.40" departSpeed="0.00" departDelay="46.00" arrival="25358.00" arrivalLane="32038051#0_0" arrivalPos="89.25" arrivalSpeed="19.49" duration="35.00" routeLength="203.79" waitingTime="8.00" waitingCount="1" stopTime="0.00" timeLoss="24.36" rerouteNo="0" devices="tripinfo_118931_405_0 routing_118931_405_0" vType="pkw" speedFactor="1.05" vaporized=""/>
    <tripinfo id="94647_393_0" depart="25326.00" departLane="23429231#1_0" departPos="4.40" departSpeed="0.00" departDelay="48.00" arrival="25360.00" arrivalLane="32038051#0_0" arrivalPos="89.25" arrivalSpeed="18.30" duration="34.00" routeLength="203.79" waitingTime="8.00" waitingCount="1" stopTime="0.00" timeLoss="22.16" rerouteNo="0" devices="tripinfo_94647_393_0 routing_94647_393_0" vType="pkw" speedFactor="0.95" vaporized=""/>
    <tripinfo id="139731_413_0" depart="25332.00" departLane="23429231#1_0" departPos="4.40" departSpeed="0.00" departDelay="52.00" arrival="25360.00" arrivalLane="32038051#0_1" arrivalPos="89.25" arrivalSpeed="18.04" duration="28.00" routeLength="203.79" waitingTime="2.00" waitingCount="1" stopTime="0.00" timeLoss="16.07" rerouteNo="0" devices="tripinfo_139731_413_0 routing_139731_413_0" vType="pkw" speedFactor="0.93" vaporized=""/>
    <tripinfo id="157203_421_0" depart="25329.00" departLane="23429231#1_0" departPos="4.40" departSpeed="0.00" departDelay="49.00" arrival="25361.00" arrivalLane="32038051#0_0" arrivalPos="89.25" arrivalSpeed="17.11" duration="32.00" routeLength="203.79" waitingTime="6.00" waitingCount="1" stopTime="0.00" timeLoss="20.56" rerouteNo="0" devices="tripinfo_157203_421_0 routing_157203_421_0" vType="pkw" speedFactor="0.93" vaporized=""/>
    <tripinfo id="106268_399_0" depart="25338.00" departLane="23429231#1_0" departPos="4.40" departSpeed="0.00" departDelay="56.00" arrival="25361.00" arrivalLane="32038051#0_1" arrivalPos="89.25" arrivalSpeed="21.31" duration="23.00" routeLength="203.79" waitingTime="0.00" waitingCount="0" stopTime="0.00" timeLoss="13.71" rerouteNo="0" devices="tripinfo_106268_399_0 routing_106268_399_0" vType="pkw" speedFactor="1.14" vaporized=""/>
    <tripinfo id="133688_411_0" depart="25340.00" departLane="23429231#1_0" departPos="4.40" departSpeed="0.00" departDelay="56.00" arrival="25363.00" arrivalLane="32038051#0_0" arrivalPos="89.25" arrivalSpeed="15.58" duration="23.00" routeLength="203.79" waitingTime="0.00" waitingCount="0" stopTime="0.00" timeLoss="10.37" rerouteNo="0" devices="tripinfo_133688_411_0 routing_133688_411_0" vType="pkw" speedFactor="0.85" vaporized=""/>
    <tripinfo id="137559_412_0" depart="25335.00" departLane="23429231#1_0" departPos="4.40" departSpeed="0.00" departDelay="53.00" arrival="25364.00" arrivalLane="32038051#0_1" arrivalPos="89.25" arrivalSpeed="15.92" duration="29.00" routeLength="203.79" waitingTime="4.00" waitingCount="1" stopTime="0.00" timeLoss="15.64" rerouteNo="0" devices="tripinfo_137559_412_0 routing_137559_412_0" vType="pkw" speedFactor="0.82" vaporized=""/>
    <tripinfo id="149973_417_0" depart="25344.00" departLane="23429231#1_0" departPos="4.40" departSpeed="0.00" departDelay="0.00" arrival="25365.00" arrivalLane="32038051#0_1" arrivalPos="89.25" arrivalSpeed="17.25" duration="21.00" routeLength="203.79" waitingTime="0.00" waitingCount="0" stopTime="0.00" timeLoss="10.19" rerouteNo="0" devices="tripinfo_149973_417_0 routing_149973_417_0" vType="pkw" speedFactor="0.98" vaporized=""/>
    <tripinfo id="127662_407_0" depart="25347.00" departLane="23429231#1_0" departPos="4.40" departSpeed="0.00" departDelay="3.00" arrival="25366.00" arrivalLane="32324544#0_1" arrivalPos="90.48" arrivalSpeed="18.86" duration="19.00" routeLength="203.50" waitingTime="0.00" waitingCount="0" stopTime="0.00" timeLoss="7.86" rerouteNo="0" devices="tripinfo_127662_407_0 routing_127662_407_0" vType="pkw" speedFactor="0.98" vaporized=""/>