<?xml version="1.0" encoding="UTF-8"?>

<!-- generated on 2025-04-21 21:22:32 by Eclipse SUMO sumo Version 1.12.0
<configuration xmlns:xsi="http://www.w3.org/2001/XMLSchema-instance" xsi:noNamespaceSchemaLocation="http://sumo.dlr.de/xsd/sumoConfiguration.xsd">

    <input>
        <net-file value="/home/dale/Desktop/RESCO/resco_benchmark/environments/cologne1/cologne1.net.xml"/>
        <route-files value="/home/dale/Desktop/RESCO/resco_benchmark/environments/cologne1/cologne1.rou.xml"/>
    </input>

    <output>
        <tripinfo-output value="/home/dale/Desktop/RESCO/results/IDQN-tr0-cologne1-0-drq_norm-wait_norm/tripinfo_17.xml"/>
        <tripinfo-output.write-unfinished value="true"/>
    </output>

    <time>
        <begin value="25200"/>
        <end value="28800"/>
    </time>

    <processing>
        <time-to-teleport value="-1"/>
    </processing>

    <report>
        <no-warnings value="true"/>
        <no-step-log value="true"/>
    </report>

    <traci_server>
        <remote-port value="56569"/>
    </traci_server>

    <random_number>
        <random value="true"/>
    </random_number>

</configuration>
-->

<tripinfos xmlns:xsi="http://www.w3.org/2001/XMLSchema-instance" xsi:noNamespaceSchemaLocation="http://sumo.dlr.de/xsd/tripinfo_file.xsd">
    <tripinfo id="124779_406_0" depart="25205.00" departLane="28198821#3_0" departPos="4.40" departSpeed="0.00" departDelay="0.00" arrival="25229.00" arrivalLane="32038051#0_1" arrivalPos="89.25" arrivalSpeed="17.29" duration="24.00" routeLength="170.57" waitingTime="2.00" waitingCount="1" stopTime="0.00" timeLoss="12.86" rerouteNo="0" devices="tripinfo_124779_406_0 routing_124779_406_0" vType="pkw" speedFactor="0.93" vaporized=""/>
    <tripinfo id="98305_395_0" depart="25211.00" departLane="28198821#3_0" departPos="4.40" departSpeed="0.00" departDelay="0.00" arrival="25239.00" arrivalLane="32038051#0_1" arrivalPos="89.25" arrivalSpeed="19.75" duration="28.00" routeLength="170.57" waitingTime="6.00" waitingCount="1" stopTime="0.00" timeLoss="18.89" rerouteNo="0" devices="tripinfo_98305_395_0 routing_98305_395_0" vType="pkw" speedFactor="1.11" vaporized=""/>
    <tripinfo id="102535_396_0" depart="25218.00" departLane="28198821#3_0" departPos="4.40" departSpeed="0.00" departDelay="0.00" arrival="25241.00" arrivalLane="32038051#0_1" arrivalPos="89.25" arrivalSpeed="18.31" duration="23.00" routeLength="170.57" waitingTime="2.00" waitingCount="1" stopTime="0.00" timeLoss="12.20" rerouteNo="0" devices="tripinfo_102535_396_0 routing_102535_396_0" vType="pkw" speedFactor="0.98" vaporized=""/>
    <tripinfo id="147209_416_0" depart="25220.00" departLane="28198821#3_0" departPos="4.40" departSpeed="0.00" departDelay="0.00" arrival="25244.00" arrivalLane="32038051#0_1" arrivalPos="89.25" arrivalSpeed="20.22" duration="24.00" routeLength="170.57" waitingTime="2.00" waitingCount="1" stopTime="0.00" timeLoss="14.98" rerouteNo="0" devices="tripinfo_147209_416_0 routing_147209_416_0" vType="pkw" speedFactor="1.13" vaporized=""/>
    <tripinfo id="123965_406_0" depart="25218.00" departLane="-32038056#3_0" departPos="4.40" departSpeed="0.00" departDelay="0.00" arrival="25252.00" arrivalLane="-28198821#4_0" arrivalPos="57.10" arrivalSpeed="14.24" duration="34.00" routeLength="437.47" waitingTime="0.00" waitingCount="0" stopTime="0.00" timeLoss="4.45" rerouteNo="0" devices="tripinfo_123965_406_0 routing_123965_406_0" vType="pkw" speedFactor="1.08" vaporized=""/>
    <tripinfo id="121258_405_0" depart="25240.00" departLane="23429231#1_0" departPos="4.40" departSpeed="0.00" departDelay="0.00" arrival="25262.00" arrivalLane="32038051#0_0" arrivalPos="89.25" arrivalSpeed="17.15" duration="22.00" routeLength="203.79" waitingTime="0.00" waitingCount="0" stopTime="0.00" timeLoss="10.85" rerouteNo="0" devices="tripinfo_121258_405_0 routing_121258_405_0" vType="pkw" speedFactor="0.94" vaporized=""/>
    <tripinfo id="126742_407_0" depart="25242.00" departLane="23429231#1_0" departPos="4.40" departSpeed="0.00" departDelay="2.00" arrival="25262.00" arrivalLane="32038051#0_1" arrivalPos="89.25" arrivalSpeed="18.81" duration="20.00" routeLength="203.79" waitingTime="0.00" waitingCount="0" stopTime="0.00" timeLoss="8.87" rerouteNo="0" devices="tripinfo_126742_407_0 routing_126742_407_0" vType="pkw" speedFactor="1.01" vaporized=""/>
    <tripinfo id="102501_396_0" depart="25245.00" departLane="23429231#1_0" departPos="4.40" departSpeed="0.00" departDelay="1.00" arrival="25264.00" arrivalLane="32038051#0_0" arrivalPos="89.25" arrivalSpeed="22.62" duration="19.00" routeLength="203.79" waitingTime="0.00" waitingCount="0" stopTime="0.00" timeLoss="9.70" rerouteNo="0" devices="tripinfo_102501_396_0 routing_102501_396_0" vType="pkw" speedFactor="1.22" vaporized=""/>
    <tripinfo id="120663_405_0" depart="25248.00" departLane="23429231#1_0" departPos="4.40" departSpeed="0.00" departDelay="2.00" arrival="25265.00" arrivalLane="32038051#0_0" arrivalPos="89.25" arrivalSpeed="19.31" duration="17.00" routeLength="203.79" waitingTime="0.00" waitingCount="0" stopTime="0.00" timeLoss="6.93" rerouteNo="0" devices="tripinfo_120663_405_0 routing_120663_405_0" vType="pkw" speedFactor="1.05" vaporized=""/>
    <tripinfo id="151372_418_0" depart="25207.00" departLane="130165204_0" departPos="4.40" departSpeed="0.00" departDelay="0.00" arrival="25268.00" arrivalLane="32038051#0_1" arrivalPos="89.25" arrivalSpeed="19.50" duration="61.00" routeLength="410.03" waitingTime="18.00" waitingCount="2" stopTime="0.00" timeLoss="38.92" rerouteNo="1" devices="tripinfo_151372_418_0 routing_151372_418_0" vType="pkw" speedFactor="1.20" vaporized=""/>
    <tripinfo id="113509_402_0" depart="25251.00" departLane="23429231#1_0" departPos="4.40" departSpeed="0.00" departDelay="3.00" arrival="25268.00" arrivalLane="-28198821#4_1" arrivalPos="57.10" arrivalSpeed="11.17" duration="17.00" routeLength="179.90" waitingTime="0.00" waitingCount="0" stopTime="0.00" timeLoss="4.04" rerouteNo="0" devices="tripinfo_113509_402_0 routing_113509_402_0" vType="pkw" speedFactor="0.88" vaporized=""/>
    <tripinfo id="149029_417_0" depart="25236.00" departLane="27115123#2_0" departPos="4.40" departSpeed="0.00" departDelay="0.00" arrival="25270.00" arrivalLane="32038051#0_1" arrivalPos="89.25" arrivalSpeed="20.08" duration="34.00" routeLength="196.41" waitingTime="5.00" waitingCount="1" stopTime="0.00" timeLoss="25.68" rerouteNo="1" devices="tripinfo_149029_417_0 routing_149029_417_0" vType="pkw" speedFactor="1.27" vaporized=""/>
    <tripinfo id="160150_421_0" depart="25223.00" departLane="-32038056#3_0" departPos="4.40" departSpeed="0.00" departDelay="4.00" arrival="25272.00" arrivalLane="32038051#0_0" arrivalPos="89.25" arrivalSpeed="19.41" duration="49.00" routeLength="446.95" waitingTime="7.00" waitingCount="1" stopTime="0.00" timeLoss="19.52" rerouteNo="0" devices="tripinfo_160150_421_0 routing_160150_421_0" vType="pkw" speedFactor="1.04" vaporized=""/>
    <tripinfo id="91582_392_0" depart="25220.00" departLane="-32038056#3_0" departPos="4.40" departSpeed="0.00" departDelay="2.00" arrival="25273.00" arrivalLane="32324544#0_1" arrivalPos="90.48" arrivalSpeed="17.86" duration="53.00" routeLength="465.51" waitingTime="8.00" waitingCount="1" stopTime="0.00" timeLoss="20.15" rerouteNo="0" devices="tripinfo_91582_392_0 routing_91582_392_0" vType="pkw" speedFactor="0.96" vaporized=""/>
    <tripinfo id="162814_422_0" depart="25233.00" departLane="-32038056#3_0" departPos="4.40" departSpeed="0.00" departDelay="0.00" arrival="25274.00" arrivalLane="32038051#0_0" arrivalPos="89.25" arrivalSpeed="18.12" duration="41.00" routeLength="446.95" waitingTime="0.00" waitingCount="0" stopTime="0.00" timeLoss="8.85" rerouteNo="0" devices="tripinfo_162814_422_0 routing_162814_422_0" vType="pkw" speedFactor="0.96" vaporized=""/>
    <tripinfo id="130147_409_0" depart="25253.00" departLane="23429231#1_0" departPos="4.40" departSpeed="0.00" departDelay="2.00" arrival="25293.00" arrivalLane="32038051#0_1" arrivalPos="89.25" arrivalSpeed="20.53" duration="40.00" routeLength="203.79" waitingTime="17.00" waitingCount="1" stopTime="0.00" timeLoss="29.53" rerouteNo="0" devices="tripinfo_130147_409_0 routing_130147_409_0" vType="pkw" speedFactor="1.06" vaporized=""/>
    <tripinfo id="102630_396_0" depart="25256.00" departLane="23429231#1_0" departPos="4.40" departSpeed="0.00" departDelay="4.00" arrival="25293.00" arrivalLane="32038051#0_0" arrivalPos="89.25" arrivalSpeed="18.07" duration="37.00" routeLength="203.79" waitingTime="15.00" waitingCount="1" stopTime="0.00" timeLoss="25.90" rerouteNo="0" devices="tripinfo_102630_396_0 routing_102630_396_0" vType="pkw" speedFactor="0.97" vaporized=""/>
    <tripinfo id="122194_406_0" depart="25261.00" departLane="23429231#1_0" departPos="4.40" departSpeed="0.00" departDelay="6.00" arrival="25294.00" arrivalLane="32038051#0_1" arrivalPos="89.25" arrivalSpeed="20.62" duration="33.00" routeLength="203.79" waitingTime="8.00" waitingCount="1" stopTime="0.00" timeLoss="23.03" rerouteNo="0" devices="tripinfo_122194_406_0 routing_122194_406_0" vType="pkw" speedFactor="1.06" vaporized=""/>
    <tripinfo id="122376_406_0" depart="25258.00" departLane="23429231#1_0" departPos="4.40" departSpeed="0.00" departDelay="4.00" arrival="25295.00" arrivalLane="32038051#0_0" arrivalPos="89.25" arrivalSpeed="17.01" duration="37.00" routeLength="203.79" waitingTime="12.00" waitingCount="1" stopTime="0.00" timeLoss="24.84" rerouteNo="0" devices="tripinfo_122376_406_0 routing_122376_406_0" vType="pkw" speedFactor="0.92" vaporized=""/>
    <tripinfo id="135103_411_0" depart="25264.00" departLane="23429231#1_0" departPos="4.40" departSpeed="0.00" departDelay="8.00" arrival="25297.00" arrivalLane="32038051#0_0" arrivalPos="89.25" arrivalSpeed="17.27" duration="33.00" routeLength="203.79" waitingTime="8.00" waitingCount="1" stopTime="0.00" timeLoss="21.19" rerouteNo="0" devices="tripinfo_135103_411_0 routing_135103_411_0" vType="pkw" speedFactor="0.95" vaporized=""/>
    <tripinfo id="152958_419_0" depart="25266.00" departLane="23429231#1_0" departPos="4.40" departSpeed="0.00" departDelay="9.00" arrival="25297.00" arrivalLane="32038051#0_1" arrivalPos="89.25" arrivalSpeed="17.11" duration="31.00" routeLength="203.79" waitingTime="4.00" waitingCount="1" stopTime="0.00" timeLoss="18.52" rerouteNo="0" devices="tripinfo_152958_419_0 routing_152958_419_0" vType="pkw" speedFactor="0.91" vaporized=""/>
    <tripinfo id="128446_408_0" depart="25273.00" departLane="-32038056#3_0" departPos="4.40" departSpeed="0.00" departDelay="0.00" arrival="25310.00" arrivalLane="32324544#0_1" arrivalPos="90.48" arrivalSpeed="18.83" duration="37.00" routeLength="465.51" waitingTime="0.00" waitingCount="0" stopTime="0.00" timeLoss="5.36" rerouteNo="0" devices="tripinfo_128446_408_0 routing_128446_408_0" vType="pkw" speedFactor="0.99" vaporized=""/>
    <tripinfo id="83516_390_0" depart="25275.00" departLane="-32038056#3_0" departPos="4.40" departSpeed="0.00" departDelay="0.00" arrival="25312.00" arrivalLane="32324544#0_1" arrivalPos="90.48" arrivalSpeed="19.24" duration="37.00" routeLength="465.51" waitingTime="0.00" waitingCount="0" stopTime="0.00" timeLoss="6.60" rerouteNo="0" devices="tripinfo_83516_390_0 routing_83516_390_0" vType="pkw" speedFactor="1.05" vaporized=""/>
    <tripinfo id="115444_403_0" depart="25294.00" departLane="28198821#3_0" departPos="4.40" departSpeed="0.00" departDelay="0.00" arrival="25313.00" arrivalLane="32038051#0_1" arrivalPos="89.25" arrivalSpeed="16.57" duration="19.00" routeLength="170.57" waitingTime="0.00" waitingCount="0" stopTime="0.00" timeLoss="7.02" rerouteNo="0" devices="tripinfo_115444_403_0 routing_115444_403_0" vType="pkw" speedFactor="0.91" vaporized=""/>
    <tripinfo id="103540_397_0" depart="25300.00" departLane="28198821#3_0" departPos="4.40" departSpeed="0.00" departDelay="0.00" arrival="25317.00" arrivalLane="32038051#0_1" arrivalPos="89.25" arrivalSpeed="21.24" duration="17.00" routeLength="170.57" waitingTime="0.00" waitingCount="0" stopTime="0.00" timeLoss="7.61" rerouteNo="0" devices="tripinfo_103540_397_0 routing_103540_397_0" vType="pkw" speedFactor="1.10" vaporized=""/>
    <tripinfo id="133955_411_0" depart="25272.00" departLane="23429231#1_0" departPos="4.40" departSpeed="0.00" departDelay="13.00" arrival="25322.00" arrivalLane="32038051#0_1" arrivalPos="89.25" arrivalSpeed="20.89" duration="50.00" routeLength="203.79" waitingTime="22.00" waitingCount="2" stopTime="0.00" timeLoss="40.19" rerouteNo="0" devices="tripinfo_133955_411_0 routing_133955_411_0" vType="pkw" speedFactor="1.09" vaporized=""/>
    <tripinfo id="125613_406_0" depart="25269.00" departLane="23429231#1_0" departPos="4.40" departSpeed="0.00" departDelay="11.00" arrival="25323.00" arrivalLane="32038051#0_0" arrivalPos="89.25" arrivalSpeed="19.33" duration="54.00" routeLength="203.79" waitingTime="26.00" waitingCount="2" stopTime="0.00" timeLoss="43.26" rerouteNo="0" devices="tripinfo_125613_406_0 routing_125613_406_0" vType="pkw" speedFactor="1.01" vaporized=""/>
    <tripinfo id="148629_417_0" depart="25284.00" departLane="27115123#2_0" departPos="4.40" departSpeed="0.00" departDelay="0.00" arrival="25323.00" arrivalLane="32324544#0_1" arrivalPos="90.48" arrivalSpeed="21.75" duration="39.00" routeLength="198.06" waitingTime="15.00" waitingCount="1" stopTime="0.00" timeLoss="29.73" rerouteNo="1" devices="tripinfo_148629_417_0 routing_148629_417_0" vType="pkw" speedFactor="1.21" vaporized=""/>
    <tripinfo id="129253_408_0" depart="25275.00" departLane="23429231#1_0" departPos="4.40" departSpeed="0.00" departDelay="15.00" arrival="25325.00" arrivalLane="32038051#0_0" arrivalPos="89.25" arrivalSpeed="15.30" duration="50.00" routeLength="203.79" waitingTime="20.00" waitingCount="1" stopTime="0.00" timeLoss="37.41" rerouteNo="0" devices="tripinfo_129253_408_0 routing_129253_408_0" vType="pkw" speedFactor="0.85" vaporized=""/>
    <tripinfo id="134807_411_0" depart="25280.00" departLane="23429231#1_0" departPos="4.40" departSpeed="0.00" departDelay="18.00" arrival="25326.00" arrivalLane="32324544#0_1" arrivalPos="90.48" arrivalSpeed="19.54" duration="46.00" routeLength="203.50" waitingTime="19.00" waitingCount="1" stopTime="0.00" timeLoss="35.45" rerouteNo="0" devices="tripinfo_134807_411_0 routing_134807_411_0" vType="pkw" speedFactor="1.06" vaporized=""/>
    <tripinfo id="120275_405_0" depart="25277.00" departLane="23429231#1_0" departPos="4.40" departSpeed="0.00" departDelay="16.00" arrival="25327.00" arrivalLane="32038051#0_0" arrivalPos="89.25" arrivalSpeed="16.37" duration="50.00" routeLength="203.79" waitingTime="19.00" waitingCount="1" stopTime="0.00" timeLoss="37.71" rerouteNo="0" devices="tripinfo_120275_405_0 routing_120275_405_0" vType="pkw" speedFactor="0.90" vaporized=""/>
    <tripinfo id="135201_411_0" depart="25282.00" departLane="23429231#1_0" departPos="4.40" departSpeed="0.00" departDelay="18.00" arrival="25327.00" arrivalLane="32038051#0_1" arrivalPos="89.25" arrivalSpeed="17.12" duration="45.00" routeLength="203.79" waitingTime="18.00" waitingCount="1" stopTime="0.00" timeLoss="32.60" rerouteNo="0" devices="tripinfo_135201_411_0 routing_135201_411_0" vType="pkw" speedFactor="0.91" vaporized=""/>
    <tripinfo id="130602_409_0" depart="25268.00" departLane="-32038056#3_0" departPos="4.40" departSpeed="0.00" departDelay="0.00" arrival="25339.00" arrivalLane="-28198821#4_0" arrivalPos="57.10" arrivalSpeed="11.12" duration="71.00" routeLength="437.47" waitingTime="25.00" waitingCount="1" stopTime="0.00" timeLoss="35.28" rerouteNo="0" devices="tripinfo_130602_409_0 routing_130602_409_0" vType="pkw" speedFactor="0.89" vaporized=""/>
    <tripinfo id="113303_402_0" depart="25284.00" departLane="-32038056#3_0" departPos="4.40" departSpeed="0.00" departDelay="1.00" arrival="25340.00" arrivalLane="32324544#0_1" arrivalPos="90.48" arrivalSpeed="19.86" duration="56.00" routeLength="465.51" waitingTime="13.00" waitingCount="1" stopTime="0.00" timeLoss="25.49" rerouteNo="0" devices="tripinfo_113303_402_0 routing_113303_402_0" vType="pkw" speedFactor="1.05" vaporized=""/>
    <tripinfo id="162096_421_0" depart="25306.00" departLane="130165204_0" departPos="4.40" departSpeed="0.00" departDelay="0.00" arrival="25340.00" arrivalLane="32038051#0_1" arrivalPos="89.25" arrivalSpeed="17.33" duration="34.00" routeLength="410.03" waitingTime="0.00" waitingCount="0" stopTime="0.00" timeLoss="5.74" rerouteNo="1" devices="tripinfo_162096_421_0 routing_162096_421_0" vType="pkw" speedFactor="0.94" vaporized=""/>
    <tripinfo id="137244_412_0" depart="25297.00" departLane="-32038056#3_0" departPos="4.40" departSpeed="0.00" departDelay="3.00" arrival="25348.00" arrivalLane="-28198821#4_0" arrivalPos="57.10" arrivalSpeed="13.55" duration="51.00" routeLength="437.47" waitingTime="4.00" waitingCount="1" stopTime="0.00" timeLoss="19.64" rerouteNo="0" devices="tripinfo_137244_412_0 routing_137244_412_0" vType="pkw" speedFactor="1.00" vaporized=""/>
    <tripinfo id="136082_411_0" depart="25278.00" departLane="-32038056#3_0" departPos="4.40" departSpeed="0.00" departDelay="1.00" arrival="25349.00" arrivalLane="32038051#0_0" arrivalPos="89.25" arrivalSpeed="17.58" duration="71.00" routeLength="446.95" waitingTime="22.00" waitingCount="3" stopTime="0.00" timeLoss="36.93" rerouteNo="0" devices="tripinfo_136082_411_0 routing_136082_411_0" vType="pkw" speedFactor="0.91" vaporized=""/>
    <tripinfo id="175147_428_0" depart="25324.00" departLane="130165204_0" departPos="4.40" departSpeed="0.00" departDelay="0.00" arrival="25358.00" arrivalLane="32038051#0_1" arrivalPos="89.25" arrivalSpeed="18.02" duration="34.00" routeLength="410.03" waitingTime="0.00" waitingCount="0" stopTime="0.00" timeLoss="6.28" rerouteNo="1" devices="tripinfo_175147_428_0 routing_175147_428_0" vType="pkw" speedFactor="0.98" vaporized=""/>
    <tripinfo id="142412_415_0" depart="25307.00" departLane="-32038056#3_0" departPos="4.40" departSpeed="0.00" departDelay="0.00" arrival="25368.00" arrivalLane="-28198821#4_0" arrivalPos="57.10" arrivalSpeed="13.08" duration="61.00" routeLength="437.47" waitingTime="17.00" waitingCount="2" stopTime="0.00" timeLoss="30.05" rerouteNo="0" devices="tripinfo_142412_415_0 routing_142412_415_0" vType="pkw" speedFactor="1.02" vaporized=""/>
    <tripinfo id="85818_390_0" depart="25281.00" departLane="-32038056#3_0" departPos="4.40" departSpeed="0.00" departDelay="1.00" arrival="25369.00" arrivalLane="32038051#0_0" arrivalPos="89.25" arrivalSpeed="17.23" duration="88.00" routeLength="446.95" waitingTime="32.00" waitingCount="3" stopTime="0.00" timeLoss="54.58" rerouteNo="0" devices="tripinfo_85818_390_0 routing_85818_390_0" vType="pkw" speedFactor="0.92" vaporized=""/>
    <tripinfo id="86583_391_0" depart="25289.00" departLane="-32038056#3_0" departPos="4.40" departSpeed="0.00" departDelay="0.00" arrival="25370.00" arrivalLane="32038051#0_0" arrivalPos="89.25" arrivalSpeed="17.41" duration="81.00" routeLength="446.95" waitingTime="25.00" waitingCount="3" stopTime="0.00" timeLoss="48.23" rerouteNo="0" devices="tripinfo_86583_391_0 routing_86583_391_0" vType="pkw" speedFactor="0.92" vaporized=""/>
    <tripinfo id="120878_405_0" depart="25291.00" departLane="-32038056#3_0" departPos="4.40" departSpeed="0.00" departDelay="0.00" arrival="25372.00" arrivalLane="32038051#0_0" arrivalPos="89.25" arrivalSpeed="21.49" duration="81.00" routeLength="446.95" waitingTime="24.00" waitingCount="3" stopTime="0.00" timeLoss="54.14" rerouteNo="0" devices="tripinfo_120878_405_0 routing_120878_405_0" vType="pkw" speedFactor="1.14" vaporized=""/>
    <tripinfo id="138220_412_0" depart="25310.00" departLane="-32038056#3_0" departPos="4.40" departSpeed="0.00" departDelay="1.00" arrival="25372.00" arrivalLane="-28198821#4_1" arrivalPos="57.10" arrivalSpeed="10.09" duration="62.00" routeLength="437.47" waitingTime="11.00" waitingCount="1" stopTime="0.00" timeLoss="22.61" rerouteNo="0" devices="tripinfo_138220_412_0 routing_138220_412_0" vType="pkw" speedFactor="0.82" vaporized=""/>
    <tripinfo id="85922_391_0" depart="25294.00" departLane="-32038056#3_0" departPos="4.40" departSpeed="0.00" departDelay="1.00" arrival="25374.00" arrivalLane="32038051#0_0" arrivalPos="89.25" arrivalSpeed="15.87" duration="80.00" routeLength="446.95" waitingTime="19.00" waitingCount="3" stopTime="0.00" timeLoss="43.58" rerouteNo="0" devices="tripinfo_85922_391_0 routing_85922_391_0" vType="pkw" speedFactor="0.84" vaporized=""/>
    <tripinfo id="167799_425_0" depart="25327.00" departLane="-32038056#3_0" departPos="4.40" departSpeed="0.00" departDelay="0.00" arrival="25375.00" arrivalLane="-28198821#4_1" arrivalPos="57.10" arrivalSpeed="13.20" duration="48.00" routeLength="437.47" waitingTime="1.00" waitingCount="1" stopTime="0.00" timeLoss="15.65" rerouteNo="0" devices="tripinfo_167799_425_0 routing_167799_425_0" vType="pkw" speedFactor="0.98" vaporized=""/>
    <tripinfo id="130372_409_0" depart="25329.00" departLane="-32038056#3_0" departPos="4.40" departSpeed="0.00" departDelay="2.00" arrival="25375.00" arrivalLane="32324544#0_1" arrivalPos="90.48" arrivalSpeed="19.60" duration="46.00" routeLength="465.51" waitingTime="1.00" waitingCount="1" stopTime="0.00" timeLoss="15.49" rerouteNo="0" devices="tripinfo_130372_409_0 routing_130372_409_0" vType="pkw" speedFactor="1.05" vaporized=""/>
    <tripinfo id="118963_405_0" depart="25304.00" departLane="-32038056#3_0" departPos="4.40" departSpeed="0.00" departDelay="0.00" arrival="25376.00" arrivalLane="32038051#0_0" arrivalPos="89.25" arrivalSpeed="19.42" duration="72.00" routeLength="446.95" waitingTime="15.00" waitingCount="3" stopTime="0.00" timeLoss="45.00" rerouteNo="0" devices="tripinfo_118963_405_0 routing_118963_405_0" vType="pkw" speedFactor="1.15" vaporized=""/>
    <tripinfo id="136152_411_0" depart="25313.00" departLane="-32038056#3_0" departPos="4.40" departSpeed="0.00" departDelay="0.00" arrival="25377.00" arrivalLane="32038051#0_0" arrivalPos="89.25" arrivalSpeed="20.01" duration="64.00" routeLength="446.95" waitingTime="12.00" waitingCount="1" stopTime="0.00" timeLoss="37.39" rerouteNo="0" devices="tripinfo_136152_411_0 routing_136152_411_0" vType="pkw" speedFactor="1.15" vaporized=""/>
    <tripinfo id="104806_398_0" depart="25332.00" departLane="-32038056#3_0" departPos="4.40" departSpeed="0.00" departDelay="3.00" arrival="25380.00" arrivalLane="32324544#0_1" arrivalPos="90.48" arrivalSpeed="15.23" duration="48.00" routeLength="465.51" waitingTime="0.00" waitingCount="0" stopTime="0.00" timeLoss="9.42" rerouteNo="0" devices="tripinfo_104806_398_0 routing_104806_398_0" vType="pkw" speedFactor="0.82" vaporized=""/>
    <tripinfo id="122154_406_0" depart="25337.00" departLane="-32038056#3_0" departPos="4.40" departSpeed="0.00" departDelay="0.00" arrival="25380.00" arrivalLane="-28198821#4_1" arrivalPos="57.10" arrivalSpeed="11.75" duration="43.00" routeLength="437.47" waitingTime="0.00" waitingCount="0" stopTime="0.00" timeLoss="7.81" rerouteNo="0" devices="tripinfo_122154_406_0 routing_122154_406_0" vType="pkw" speedFactor="0.90" vaporized=""/>
    <tripinfo id="121091_405_0" depart="25345.00" departLane="-32038056#3_0" departPos="4.40" departSpeed="0.00" departDelay="0.00" arrival="25384.00" arrivalLane="32038051#0_0" arrivalPos="89.25" arrivalSpeed="16.12" duration="39.00" routeLength="446.95" waitingTime="0.00" waitingCount="0" stopTime="0.00" timeLoss="4.66" rerouteNo="0" devices="tripinfo_121091_405_0 routing_121091_405_0" vType="pkw" speedFactor="0.88" vaporized=""/>
    <tripinfo id="169772_426_0" depart="25347.00" departLane="-32038056#3_0" departPos="4.40" departSpeed="0.00" departDelay="0.00" arrival="25387.00" arrivalLane="32038051#0_0" arrivalPos="89.25" arrivalSpeed="17.17" duration="40.00" routeLength="446.95" waitingTime="0.00" waitingCount="0" stopTime="0.00" timeLoss="5.59" rerouteNo="0" devices="tripinfo_169772_426_0 routing_169772_426_0" vType="pkw" speedFactor="0.89" vaporized=""/>
    <tripinfo id="150753_418_0" depart="25353.00" departLane="-32038056#3_0" departPos="4.40" departSpeed="0.00" departDelay="2.00" arrival="25390.00" arrivalLane="32324544#0_1" arrivalPos="90.48" arrivalSpeed="21.14" duration="37.00" routeLength="465.51" waitingTime="0.00" waitingCount="0" stopTime="0.00" timeLoss="7.86" rerouteNo="0" devices="tripinfo_150753_418_0 routing_150753_418_0" vType="pkw" speedFactor="1.09" vaporized=""/>
    <tripinfo id="135138_411_0" depart="25350.00" departLane="-32038056#3_0" departPos="4.40" departSpeed="0.00" departDelay="1.00" arrival="25391.00" arrivalLane="-28198821#4_0" arrivalPos="57.10" arrivalSpeed="12.22" duration="41.00" routeLength="437.47" waitingTime="0.00" waitingCount="0" stopTime="0.00" timeLoss="5.19" rerouteNo="0" devices="tripinfo_135138_411_0 routing_135138_411_0" vType="pkw" speedFactor="0.90" vaporized=""/>
    <tripinfo id="114183_402_0" depart="25359.00" departLane="-32038056#3_0" departPos="4.40" departSpeed="0.00" departDelay="0.00" arrival="25393.00" arrivalLane="32038051#0_0" arrivalPos="89.25" arrivalSpeed="19.80" duration="34.00" routeLength="446.95" waitingTime="0.00" waitingCount="0" stopTime="0.00" timeLoss="4.82" rerouteNo="0" devices="tripinfo_114183_402_0 routing_114183_402_0" vType="pkw" speedFactor="1.04" vaporized=""/>
    <tripinfo id="86189_391_0" depart="25284.00" departLane="23429231#1_0" departPos="4.40" departSpeed="0.00" departDelay="19.00" arrival="25403.00" arrivalLane="32038051#0_1" arrivalPos="89.25" arrivalSpeed="18.16" duration="119.00" routeLength="203.79" waitingTime="89.00" waitingCount="3" stopTime="0.00" timeLoss="107.48" rerouteNo="0" devices="tripinfo_86189_391_0 routing_86189_391_0" vType="pkw" speedFactor="0.96" vaporized=""/>
    <tripinfo id="57065_374_0" depart="25287.00" departLane="23429231#1_0" departPos="4.40" departSpeed="0.00" departDelay="21.00" arrival="25403.00" arrivalLane="32038051#0_0" arrivalPos="89.25" arrivalSpeed="17.36" duration="116.00" routeLength="203.79" waitingTime="88.00" waitingCount="2" stopTime="0.00" timeLoss="105.03" rerouteNo="0" devices="tripinfo_57065_374_0 routing_57065_374_0" vType="pkw" speedFactor="0.99" vaporized=""/>
    <tripinfo id="129519_408_0" depart="25290.00" departLane="23429231#1_0" departPos="4.40" departSpeed="0.00" departDelay="23.00" arrival="25405.00" arrivalLane="32038051#0_0" arrivalPos="89.25" arrivalSpeed="15.37" duration="115.00" routeLength="203.79" waitingTime="84.00" waitingCount="2" stopTime="0.00" timeLoss="102.15" rerouteNo="0" devices="tripinfo_129519_408_0 routing_129519_408_0" vType="pkw" speedFactor="0.84" vaporized=""/>
    <tripinfo id="82015_389_0" depart="25293.00" departLane="23429231#1_0" departPos="4.40" departSpeed="0.00" departDelay="25.00" arrival="25405.00" arrivalLane="32038051#0_1" arrivalPos="89.25" arrivalSpeed="21.21" duration="112.00" routeLength="203.79" waitingTime="81.00" waitingCount="2" stopTime="0.00" timeLoss="101.54" rerouteNo="0" devices="tripinfo_82015_389_0 routing_82015_389_0" vType="pkw" speedFactor="1.10" vaporized=""/>
    <tripinfo id="135431_411_0" depart="25298.00" departLane="23429231#1_0" departPos="4.40" departSpeed="0.00" departDelay="29.00" arrival="25406.00" arrivalLane="32038051#0_1" arrivalPos="89.25" arrivalSpeed="21.41" duration="108.00" routeLength="203.79" waitingTime="76.00" waitingCount="2" stopTime="0.00" timeLoss="98.55" rerouteNo="0" devices="tripinfo_135431_411_0 routing_135431_411_0" vType="pkw" speedFactor="1.11" vaporized=""/>
    <tripinfo id="136204_411_0" depart="25296.00" departLane="23429231#1_0" departPos="4.40" departSpeed="0.00" departDelay="27.00" arrival="25407.00" arrivalLane="32038051#0_0" arrivalPos="89.25" arrivalSpeed="20.68" duration="111.00" routeLength="203.79" waitingTime="80.00" waitingCount="2" stopTime="0.00" timeLoss="101.36" rerouteNo="0" devices="tripinfo_136204_411_0 routing_136204_411_0" vType="pkw" speedFactor="1.18" vaporized=""/>
    <tripinfo id="161721_421_0" depart="25337.00" departLane="130165204_0" departPos="4.40" departSpeed="0.00" departDelay="0.00" arrival="25410.00" arrivalLane="32038051#0_1" arrivalPos="89.25" arrivalSpeed="18.94" duration="73.00" routeLength="410.03" waitingTime="27.00" waitingCount="2" stopTime="0.00" timeLoss="46.00" rerouteNo="1" devices="tripinfo_161721_421_0 routing_161721_421_0" vType="pkw" speedFactor="0.98" vaporized=""/>
    <tripinfo id="148536_417_0" depart="25361.00" departLane="-32038056#3_0" departPos="4.40" departSpeed="0.00" departDelay="0.00" arrival="25413.00" arrivalLane="32324544#0_1" arrivalPos="90.48" arrivalSpeed="19.52" duration="52.00" routeLength="465.51" waitingTime="9.00" waitingCount="1" stopTime="0.00" timeLoss="21.44" rerouteNo="0" devices="tripinfo_148536_417_0 routing_148536_417_0" vType="pkw" speedFactor="1.03" vaporized=""/>
    <tripinfo id="120618_405_0" depart="25364.00" departLane="-32038056#3_0" departPos="4.40" departSpeed="0.00" departDelay="1.00" arrival="25413.00" arrivalLane="32038051#0_0" arrivalPos="89.25" arrivalSpeed="20.51" duration="49.00" routeLength="446.95" waitingTime="9.00" waitingCount="1" stopTime="0.00" timeLoss="22.28" rerouteNo="0" devices="tripinfo_120618_405_0 routing_120618_405_0" vType="pkw" speedFactor="1.17" vaporized=""/>
    <tripinfo id="167170_425_0" depart="25367.00" departLane="-32038056#3_0" departPos="4.40" departSpeed="0.00" departDelay="3.00" arrival="25415.00" arrivalLane="-28198821#4_0" arrivalPos="57.10" arrivalSpeed="12.81" duration="48.00" routeLength="437.47" waitingTime="3.00" waitingCount="1" stopTime="0.00" timeLoss="15.32" rerouteNo="0" devices="tripinfo_167170_425_0 routing_167170_425_0" vType="pkw" speedFactor="0.98" vaporized=""/>