<?xml version="1.0" encoding="UTF-8"?>

<!-- generated on 2025-04-21 21:23:02 by Eclipse SUMO sumo Version 1.12.0
<configuration xmlns:xsi="http://www.w3.org/2001/XMLSchema-instance" xsi:noNamespaceSchemaLocation="http://sumo.dlr.de/xsd/sumoConfiguration.xsd">

    <input>
        <net-file value="/home/dale/Desktop/RESCO/resco_benchmark/environments/cologne1/cologne1.net.xml"/>
        <route-files value="/home/dale/Desktop/RESCO/resco_benchmark/environments/cologne1/cologne1.rou.xml"/>
    </input>

    <output>
        <tripinfo-output value="/home/dale/Desktop/RESCO/results/IDQN-tr0-cologne1-0-drq_norm-wait_norm/tripinfo_23.xml"/>
        <tripinfo-output.write-unfinished value="true"/>
    </output>

    <time>
        <begin value="25200"/>
        <end value="28800"/>
    </time>

    <processing>
        <time-to-teleport value="-1"/>
    </processing>

    <report>
        <no-warnings value="true"/>
        <no-step-log value="true"/>
    </report>

    <traci_server>
        <remote-port value="42839"/>
    </traci_server>

    <random_number>
        <random value="true"/>
    </random_number>

</configuration>
-->

<tripinfos xmlns:xsi="http://www.w3.org/2001/XMLSchema-instance" xsi:noNamespaceSchemaLocation="http://sumo.dlr.de/xsd/tripinfo_file.xsd">
    <tripinfo id="124779_406_0" depart="25205.00" departLane="28198821#3_0" departPos="4.40" departSpeed="0.00" departDelay="0.00" arrival="25220.00" arrivalLane="32038051#0_1" arrivalPos="89.25" arrivalSpeed="18.36" duration="15.00" routeLength="170.57" waitingTime="0.00" waitingCount="0" stopTime="0.00" timeLoss="4.67" rerouteNo="0" devices="tripinfo_124779_406_0 routing_124779_406_0" vType="pkw" speedFactor="0.97" vaporized=""/>
    <tripinfo id="151372_418_0" depart="25207.00" departLane="130165204_0" departPos="4.40" departSpeed="0.00" departDelay="0.00" arrival="25240.00" arrivalLane="32038051#0_1" arrivalPos="89.25" arrivalSpeed="20.78" duration="33.00" routeLength="410.03" waitingTime="0.00" waitingCount="0" stopTime="0.00" timeLoss="8.55" rerouteNo="1" devices="tripinfo_151372_418_0 routing_151372_418_0" vType="pkw" speedFactor="1.08" vaporized=""/>
    <tripinfo id="98305_395_0" depart="25211.00" departLane="28198821#3_0" departPos="4.40" departSpeed="0.00" departDelay="0.00" arrival="25250.00" arrivalLane="32038051#0_1" arrivalPos="89.25" arrivalSpeed="16.01" duration="39.00" routeLength="170.57" waitingTime="18.00" waitingCount="1" stopTime="0.00" timeLoss="27.28" rerouteNo="0" devices="tripinfo_98305_395_0 routing_98305_395_0" vType="pkw" speedFactor="0.86" vaporized=""/>
    <tripinfo id="121258_405_0" depart="25240.00" departLane="23429231#1_0" departPos="4.40" departSpeed="0.00" departDelay="0.00" arrival="25256.00" arrivalLane="32038051#0_0" arrivalPos="89.25" arrivalSpeed="20.69" duration="16.00" routeLength="203.79" waitingTime="0.00" waitingCount="0" stopTime="0.00" timeLoss="5.56" rerouteNo="0" devices="tripinfo_121258_405_0 routing_121258_405_0" vType="pkw" speedFactor="1.09" vaporized=""/>
    <tripinfo id="149029_417_0" depart="25236.00" departLane="27115123#2_0" departPos="4.40" departSpeed="0.00" departDelay="0.00" arrival="25259.00" arrivalLane="32038051#0_1" arrivalPos="89.25" arrivalSpeed="18.82" duration="23.00" routeLength="196.41" waitingTime="0.00" waitingCount="0" stopTime="0.00" timeLoss="13.29" rerouteNo="1" devices="tripinfo_149029_417_0 routing_149029_417_0" vType="pkw" speedFactor="1.06" vaporized=""/>
    <tripinfo id="123965_406_0" depart="25218.00" departLane="-32038056#3_0" departPos="4.40" departSpeed="0.00" departDelay="0.00" arrival="25269.00" arrivalLane="-28198821#4_0" arrivalPos="57.10" arrivalSpeed="12.80" duration="51.00" routeLength="437.47" waitingTime="7.00" waitingCount="1" stopTime="0.00" timeLoss="17.12" rerouteNo="0" devices="tripinfo_123965_406_0 routing_123965_406_0" vType="pkw" speedFactor="0.95" vaporized=""/>
    <tripinfo id="91582_392_0" depart="25221.00" departLane="-32038056#3_0" departPos="4.40" departSpeed="0.00" departDelay="3.00" arrival="25269.00" arrivalLane="32324544#0_1" arrivalPos="90.48" arrivalSpeed="16.56" duration="48.00" routeLength="465.51" waitingTime="3.00" waitingCount="1" stopTime="0.00" timeLoss="12.99" rerouteNo="0" devices="tripinfo_91582_392_0 routing_91582_392_0" vType="pkw" speedFactor="0.89" vaporized=""/>
    <tripinfo id="102535_396_0" depart="25218.00" departLane="28198821#3_0" departPos="4.40" departSpeed="0.00" departDelay="0.00" arrival="25274.00" arrivalLane="32038051#0_1" arrivalPos="89.25" arrivalSpeed="20.14" duration="56.00" routeLength="170.57" waitingTime="29.00" waitingCount="3" stopTime="0.00" timeLoss="45.55" rerouteNo="0" devices="tripinfo_102535_396_0 routing_102535_396_0" vType="pkw" speedFactor="1.05" vaporized=""/>
    <tripinfo id="160150_421_0" depart="25223.00" departLane="-32038056#3_0" departPos="4.40" departSpeed="0.00" departDelay="4.00" arrival="25278.00" arrivalLane="32038051#0_0" arrivalPos="89.25" arrivalSpeed="18.64" duration="55.00" routeLength="446.95" waitingTime="9.00" waitingCount="2" stopTime="0.00" timeLoss="29.23" rerouteNo="0" devices="tripinfo_160150_421_0 routing_160150_421_0" vType="pkw" speedFactor="1.17" vaporized=""/>
    <tripinfo id="147209_416_0" depart="25220.00" departLane="28198821#3_0" departPos="4.40" departSpeed="0.00" departDelay="0.00" arrival="25280.00" arrivalLane="32038051#0_1" arrivalPos="89.25" arrivalSpeed="21.08" duration="60.00" routeLength="170.57" waitingTime="32.00" waitingCount="3" stopTime="0.00" timeLoss="50.56" rerouteNo="0" devices="tripinfo_147209_416_0 routing_147209_416_0" vType="pkw" speedFactor="1.14" vaporized=""/>
    <tripinfo id="126742_407_0" depart="25243.00" departLane="23429231#1_0" departPos="4.40" departSpeed="0.00" departDelay="3.00" arrival="25293.00" arrivalLane="32038051#0_0" arrivalPos="89.25" arrivalSpeed="14.96" duration="50.00" routeLength="203.79" waitingTime="27.00" waitingCount="1" stopTime="0.00" timeLoss="37.34" rerouteNo="0" devices="tripinfo_126742_407_0 routing_126742_407_0" vType="pkw" speedFactor="0.83" vaporized=""/>
    <tripinfo id="102501_396_0" depart="25245.00" departLane="23429231#1_0" departPos="4.40" departSpeed="0.00" departDelay="1.00" arrival="25293.00" arrivalLane="32038051#0_1" arrivalPos="89.25" arrivalSpeed="21.02" duration="48.00" routeLength="203.79" waitingTime="23.00" waitingCount="1" stopTime="0.00" timeLoss="38.13" rerouteNo="0" devices="tripinfo_102501_396_0 routing_102501_396_0" vType="pkw" speedFactor="1.11" vaporized=""/>
    <tripinfo id="120663_405_0" depart="25248.00" departLane="23429231#1_0" departPos="4.40" departSpeed="0.00" departDelay="2.00" arrival="25295.00" arrivalLane="32038051#0_0" arrivalPos="89.25" arrivalSpeed="16.11" duration="47.00" routeLength="203.79" waitingTime="23.00" waitingCount="1" stopTime="0.00" timeLoss="34.06" rerouteNo="0" devices="tripinfo_120663_405_0 routing_120663_405_0" vType="pkw" speedFactor="0.85" vaporized=""/>
    <tripinfo id="113509_402_0" depart="25251.00" departLane="23429231#1_0" departPos="4.40" departSpeed="0.00" departDelay="3.00" arrival="25295.00" arrivalLane="-28198821#4_1" arrivalPos="57.10" arrivalSpeed="14.83" duration="44.00" routeLength="179.90" waitingTime="19.00" waitingCount="1" stopTime="0.00" timeLoss="33.24" rerouteNo="0" devices="tripinfo_113509_402_0 routing_113509_402_0" vType="pkw" speedFactor="1.10" vaporized=""/>
    <tripinfo id="130147_409_0" depart="25254.00" departLane="23429231#1_0" departPos="4.40" departSpeed="0.00" departDelay="3.00" arrival="25296.00" arrivalLane="32038051#0_0" arrivalPos="89.25" arrivalSpeed="17.65" duration="42.00" routeLength="203.79" waitingTime="19.00" waitingCount="1" stopTime="0.00" timeLoss="30.55" rerouteNo="0" devices="tripinfo_130147_409_0 routing_130147_409_0" vType="pkw" speedFactor="0.93" vaporized=""/>
    <tripinfo id="102630_396_0" depart="25256.00" departLane="23429231#1_0" departPos="4.40" departSpeed="0.00" departDelay="4.00" arrival="25296.00" arrivalLane="32038051#0_1" arrivalPos="89.25" arrivalSpeed="20.14" duration="40.00" routeLength="203.79" waitingTime="17.00" waitingCount="1" stopTime="0.00" timeLoss="29.74" rerouteNo="0" devices="tripinfo_102630_396_0 routing_102630_396_0" vType="pkw" speedFactor="1.06" vaporized=""/>
    <tripinfo id="122376_406_0" depart="25259.00" departLane="23429231#1_0" departPos="4.40" departSpeed="0.00" departDelay="5.00" arrival="25298.00" arrivalLane="32038051#0_0" arrivalPos="89.25" arrivalSpeed="18.04" duration="39.00" routeLength="203.79" waitingTime="15.00" waitingCount="1" stopTime="0.00" timeLoss="27.82" rerouteNo="0" devices="tripinfo_122376_406_0 routing_122376_406_0" vType="pkw" speedFactor="0.99" vaporized=""/>
    <tripinfo id="122194_406_0" depart="25261.00" departLane="23429231#1_0" departPos="4.40" departSpeed="0.00" departDelay="6.00" arrival="25298.00" arrivalLane="32038051#0_1" arrivalPos="89.25" arrivalSpeed="17.11" duration="37.00" routeLength="203.79" waitingTime="12.00" waitingCount="1" stopTime="0.00" timeLoss="24.95" rerouteNo="0" devices="tripinfo_122194_406_0 routing_122194_406_0" vType="pkw" speedFactor="0.89" vaporized=""/>
    <tripinfo id="135103_411_0" depart="25264.00" departLane="23429231#1_0" departPos="4.40" departSpeed="0.00" departDelay="8.00" arrival="25299.00" arrivalLane="32038051#0_0" arrivalPos="89.25" arrivalSpeed="19.36" duration="35.00" routeLength="203.79" waitingTime="11.00" waitingCount="1" stopTime="0.00" timeLoss="25.45" rerouteNo="0" devices="tripinfo_135103_411_0 routing_135103_411_0" vType="pkw" speedFactor="1.10" vaporized=""/>
    <tripinfo id="152958_419_0" depart="25267.00" departLane="23429231#1_0" departPos="4.40" departSpeed="0.00" departDelay="10.00" arrival="25300.00" arrivalLane="32038051#0_1" arrivalPos="89.25" arrivalSpeed="19.25" duration="33.00" routeLength="203.79" waitingTime="8.00" waitingCount="1" stopTime="0.00" timeLoss="21.62" rerouteNo="0" devices="tripinfo_152958_419_0 routing_152958_419_0" vType="pkw" speedFactor="1.00" vaporized=""/>
    <tripinfo id="148629_417_0" depart="25284.00" departLane="27115123#2_0" departPos="4.40" departSpeed="0.00" departDelay="0.00" arrival="25300.00" arrivalLane="32324544#0_0" arrivalPos="90.48" arrivalSpeed="18.16" duration="16.00" routeLength="198.06" waitingTime="0.00" waitingCount="0" stopTime="0.00" timeLoss="4.83" rerouteNo="1" devices="tripinfo_148629_417_0 routing_148629_417_0" vType="pkw" speedFactor="0.96" vaporized=""/>
    <tripinfo id="125613_406_0" depart="25269.00" departLane="23429231#1_0" departPos="4.40" departSpeed="0.00" departDelay="11.00" arrival="25301.00" arrivalLane="32038051#0_0" arrivalPos="89.25" arrivalSpeed="19.82" duration="32.00" routeLength="203.79" waitingTime="6.00" waitingCount="1" stopTime="0.00" timeLoss="22.56" rerouteNo="0" devices="tripinfo_125613_406_0 routing_125613_406_0" vType="pkw" speedFactor="1.12" vaporized=""/>
    <tripinfo id="133955_411_0" depart="25272.00" departLane="23429231#1_0" departPos="4.40" departSpeed="0.00" departDelay="13.00" arrival="25301.00" arrivalLane="32038051#0_1" arrivalPos="89.25" arrivalSpeed="19.79" duration="29.00" routeLength="203.79" waitingTime="3.00" waitingCount="1" stopTime="0.00" timeLoss="18.97" rerouteNo="0" devices="tripinfo_133955_411_0 routing_133955_411_0" vType="pkw" speedFactor="1.07" vaporized=""/>
    <tripinfo id="129253_408_0" depart="25275.00" departLane="23429231#1_0" departPos="4.40" departSpeed="0.00" departDelay="15.00" arrival="25303.00" arrivalLane="32038051#0_0" arrivalPos="89.25" arrivalSpeed="18.37" duration="28.00" routeLength="203.79" waitingTime="3.00" waitingCount="1" stopTime="0.00" timeLoss="16.82" rerouteNo="0" devices="tripinfo_129253_408_0 routing_129253_408_0" vType="pkw" speedFactor="0.98" vaporized=""/>
    <tripinfo id="120275_405_0" depart="25278.00" departLane="23429231#1_0" departPos="4.40" departSpeed="0.00" departDelay="17.00" arrival="25303.00" arrivalLane="32038051#0_1" arrivalPos="89.25" arrivalSpeed="22.40" duration="25.00" routeLength="203.79" waitingTime="0.00" waitingCount="0" stopTime="0.00" timeLoss="15.59" rerouteNo="0" devices="tripinfo_120275_405_0 routing_120275_405_0" vType="pkw" speedFactor="1.23" vaporized=""/>
    <tripinfo id="135201_411_0" depart="25282.00" departLane="23429231#1_0" departPos="4.40" departSpeed="0.00" departDelay="18.00" arrival="25304.00" arrivalLane="32038051#0_0" arrivalPos="89.25" arrivalSpeed="21.38" duration="22.00" routeLength="203.79" waitingTime="0.00" waitingCount="0" stopTime="0.00" timeLoss="12.47" rerouteNo="0" devices="tripinfo_135201_411_0 routing_135201_411_0" vType="pkw" speedFactor="1.11" vaporized=""/>
    <tripinfo id="134807_411_0" depart="25280.00" departLane="23429231#1_0" departPos="4.40" departSpeed="0.00" departDelay="18.00" arrival="25306.00" arrivalLane="32324544#0_1" arrivalPos="90.48" arrivalSpeed="18.18" duration="26.00" routeLength="203.50" waitingTime="0.00" waitingCount="0" stopTime="0.00" timeLoss="15.00" rerouteNo="0" devices="tripinfo_134807_411_0 routing_134807_411_0" vType="pkw" speedFactor="0.98" vaporized=""/>
    <tripinfo id="86189_391_0" depart="25285.00" departLane="23429231#1_0" departPos="4.40" departSpeed="0.00" departDelay="20.00" arrival="25306.00" arrivalLane="32038051#0_0" arrivalPos="89.25" arrivalSpeed="20.08" duration="21.00" routeLength="203.79" waitingTime="0.00" waitingCount="0" stopTime="0.00" timeLoss="10.69" rerouteNo="0" devices="tripinfo_86189_391_0 routing_86189_391_0" vType="pkw" speedFactor="1.07" vaporized=""/>
    <tripinfo id="57065_374_0" depart="25287.00" departLane="23429231#1_0" departPos="4.40" departSpeed="0.00" departDelay="21.00" arrival="25307.00" arrivalLane="32038051#0_1" arrivalPos="89.25" arrivalSpeed="16.59" duration="20.00" routeLength="203.79" waitingTime="1.00" waitingCount="1" stopTime="0.00" timeLoss="7.47" rerouteNo="0" devices="tripinfo_57065_374_0 routing_57065_374_0" vType="pkw" speedFactor="0.90" vaporized=""/>
    <tripinfo id="162814_422_0" depart="25233.00" departLane="-32038056#3_0" departPos="4.40" departSpeed="0.00" departDelay="0.00" arrival="25318.00" arrivalLane="32038051#0_0" arrivalPos="89.25" arrivalSpeed="16.46" duration="85.00" routeLength="446.95" waitingTime="37.00" waitingCount="2" stopTime="0.00" timeLoss="51.54" rerouteNo="0" devices="tripinfo_162814_422_0 routing_162814_422_0" vType="pkw" speedFactor="0.90" vaporized=""/>
    <tripinfo id="130602_409_0" depart="25268.00" departLane="-32038056#3_0" departPos="4.40" departSpeed="0.00" departDelay="0.00" arrival="25318.00" arrivalLane="-28198821#4_1" arrivalPos="57.10" arrivalSpeed="13.75" duration="50.00" routeLength="437.47" waitingTime="8.00" waitingCount="1" stopTime="0.00" timeLoss="18.38" rerouteNo="0" devices="tripinfo_130602_409_0 routing_130602_409_0" vType="pkw" speedFactor="1.00" vaporized=""/>
    <tripinfo id="129519_408_0" depart="25290.00" departLane="23429231#1_0" departPos="4.40" departSpeed="0.00" departDelay="23.00" arrival="25323.00" arrivalLane="32038051#0_0" arrivalPos="89.25" arrivalSpeed="19.56" duration="33.00" routeLength="203.79" waitingTime="8.00" waitingCount="1" stopTime="0.00" timeLoss="22.78" rerouteNo="0" devices="tripinfo_129519_408_0 routing_129519_408_0" vType="pkw" speedFactor="1.05" vaporized=""/>
    <tripinfo id="115444_403_0" depart="25294.00" departLane="28198821#3_0" departPos="4.40" departSpeed="0.00" departDelay="0.00" arrival="25324.00" arrivalLane="32038051#0_1" arrivalPos="89.25" arrivalSpeed="16.88" duration="30.00" routeLength="170.57" waitingTime="6.00" waitingCount="2" stopTime="0.00" timeLoss="18.34" rerouteNo="0" devices="tripinfo_115444_403_0 routing_115444_403_0" vType="pkw" speedFactor="0.91" vaporized=""/>
    <tripinfo id="136204_411_0" depart="25295.00" departLane="23429231#1_0" departPos="4.40" departSpeed="0.00" departDelay="26.00" arrival="25325.00" arrivalLane="32038051#0_0" arrivalPos="89.25" arrivalSpeed="16.78" duration="30.00" routeLength="203.79" waitingTime="4.00" waitingCount="1" stopTime="0.00" timeLoss="18.01" rerouteNo="0" devices="tripinfo_136204_411_0 routing_136204_411_0" vType="pkw" speedFactor="0.92" vaporized=""/>
    <tripinfo id="82015_389_0" depart="25293.00" departLane="23429231#1_0" departPos="4.40" departSpeed="0.00" departDelay="25.00" arrival="25326.00" arrivalLane="32038051#0_1" arrivalPos="89.25" arrivalSpeed="17.75" duration="33.00" routeLength="203.79" waitingTime="7.00" waitingCount="2" stopTime="0.00" timeLoss="21.59" rerouteNo="0" devices="tripinfo_82015_389_0 routing_82015_389_0" vType="pkw" speedFactor="0.97" vaporized=""/>
    <tripinfo id="146814_416_0" depart="25301.00" departLane="23429231#1_0" departPos="4.40" departSpeed="0.00" departDelay="30.00" arrival="25326.00" arrivalLane="32038051#0_0" arrivalPos="89.25" arrivalSpeed="16.60" duration="25.00" routeLength="203.79" waitingTime="0.00" waitingCount="0" stopTime="0.00" timeLoss="12.80" rerouteNo="0" devices="tripinfo_146814_416_0 routing_146814_416_0" vType="pkw" speedFactor="0.86" vaporized=""/>
    <tripinfo id="135431_411_0" depart="25298.00" departLane="23429231#1_0" departPos="4.40" departSpeed="0.00" departDelay="29.00" arrival="25328.00" arrivalLane="32038051#0_1" arrivalPos="89.25" arrivalSpeed="19.70" duration="30.00" routeLength="203.79" waitingTime="2.00" waitingCount="1" stopTime="0.00" timeLoss="18.86" rerouteNo="0" devices="tripinfo_135431_411_0 routing_135431_411_0" vType="pkw" speedFactor="1.01" vaporized=""/>
    <tripinfo id="136082_411_0" depart="25278.00" departLane="-32038056#3_0" departPos="4.40" departSpeed="0.00" departDelay="1.00" arrival="25338.00" arrivalLane="32038051#0_0" arrivalPos="89.25" arrivalSpeed="18.82" duration="60.00" routeLength="446.95" waitingTime="15.00" waitingCount="1" stopTime="0.00" timeLoss="29.17" rerouteNo="0" devices="tripinfo_136082_411_0 routing_136082_411_0" vType="pkw" speedFactor="0.99" vaporized=""/>
    <tripinfo id="128446_408_0" depart="25273.00" departLane="-32038056#3_0" departPos="4.40" departSpeed="0.00" departDelay="0.00" arrival="25339.00" arrivalLane="32324544#0_1" arrivalPos="90.48" arrivalSpeed="18.33" duration="66.00" routeLength="465.51" waitingTime="22.00" waitingCount="2" stopTime="0.00" timeLoss="32.97" rerouteNo="0" devices="tripinfo_128446_408_0 routing_128446_408_0" vType="pkw" speedFactor="0.95" vaporized=""/>
    <tripinfo id="103540_397_0" depart="25300.00" departLane="28198821#3_0" departPos="4.40" departSpeed="0.00" departDelay="0.00" arrival="25339.00" arrivalLane="32038051#0_1" arrivalPos="89.25" arrivalSpeed="19.68" duration="39.00" routeLength="170.57" waitingTime="16.00" waitingCount="1" stopTime="0.00" timeLoss="28.56" rerouteNo="0" devices="tripinfo_103540_397_0 routing_103540_397_0" vType="pkw" speedFactor="1.03" vaporized=""/>
    <tripinfo id="83516_390_0" depart="25275.00" departLane="-32038056#3_0" departPos="4.40" departSpeed="0.00" departDelay="0.00" arrival="25341.00" arrivalLane="32324544#0_1" arrivalPos="90.48" arrivalSpeed="18.65" duration="66.00" routeLength="465.51" waitingTime="18.00" waitingCount="2" stopTime="0.00" timeLoss="34.30" rerouteNo="0" devices="tripinfo_83516_390_0 routing_83516_390_0" vType="pkw" speedFactor="1.00" vaporized=""/>
    <tripinfo id="113303_402_0" depart="25284.00" departLane="-32038056#3_0" departPos="4.40" departSpeed="0.00" departDelay="1.00" arrival="25342.00" arrivalLane="32324544#0_1" arrivalPos="90.48" arrivalSpeed="21.57" duration="58.00" routeLength="465.51" waitingTime="14.00" waitingCount="2" stopTime="0.00" timeLoss="31.22" rerouteNo="0" devices="tripinfo_113303_402_0 routing_113303_402_0" vType="pkw" speedFactor="1.17" vaporized=""/>
    <tripinfo id="125316_406_0" depart="25304.00" departLane="23429231#1_0" departPos="4.40" departSpeed="0.00" departDelay="33.00" arrival="25353.00" arrivalLane="32038051#0_1" arrivalPos="89.25" arrivalSpeed="15.70" duration="49.00" routeLength="203.79" waitingTime="19.00" waitingCount="1" stopTime="0.00" timeLoss="36.05" rerouteNo="0" devices="tripinfo_125316_406_0 routing_125316_406_0" vType="pkw" speedFactor="0.83" vaporized=""/>
    <tripinfo id="118286_405_0" depart="25306.00" departLane="23429231#1_0" departPos="4.40" departSpeed="0.00" departDelay="33.00" arrival="25353.00" arrivalLane="32038051#0_0" arrivalPos="89.25" arrivalSpeed="14.76" duration="47.00" routeLength="203.79" waitingTime="22.00" waitingCount="2" stopTime="0.00" timeLoss="33.60" rerouteNo="0" devices="tripinfo_118286_405_0 routing_118286_405_0" vType="pkw" speedFactor="0.79" vaporized=""/>
    <tripinfo id="134435_411_0" depart="25310.00" departLane="23429231#1_0" departPos="4.40" departSpeed="0.00" departDelay="37.00" arrival="25355.00" arrivalLane="32038051#0_0" arrivalPos="89.25" arrivalSpeed="17.04" duration="45.00" routeLength="203.79" waitingTime="20.00" waitingCount="1" stopTime="0.00" timeLoss="32.57" rerouteNo="0" devices="tripinfo_134435_411_0 routing_134435_411_0" vType="pkw" speedFactor="0.90" vaporized=""/>
    <tripinfo id="108236_400_0" depart="25313.00" departLane="23429231#1_0" departPos="4.40" departSpeed="0.00" departDelay="39.00" arrival="25355.00" arrivalLane="32038051#0_1" arrivalPos="89.25" arrivalSpeed="18.49" duration="42.00" routeLength="203.79" waitingTime="18.00" waitingCount="1" stopTime="0.00" timeLoss="30.23" rerouteNo="0" devices="tripinfo_108236_400_0 routing_108236_400_0" vType="pkw" speedFactor="0.97" vaporized=""/>
    <tripinfo id="146536_416_0" depart="25316.00" departLane="23429231#1_0" departPos="4.40" departSpeed="0.00" departDelay="41.00" arrival="25356.00" arrivalLane="32038051#0_0" arrivalPos="89.25" arrivalSpeed="19.26" duration="40.00" routeLength="203.79" waitingTime="17.00" waitingCount="1" stopTime="0.00" timeLoss="29.38" rerouteNo="0" devices="tripinfo_146536_416_0 routing_146536_416_0" vType="pkw" speedFactor="1.01" vaporized=""/>
    <tripinfo id="110905_401_0" depart="25318.00" departLane="23429231#1_0" departPos="4.40" departSpeed="0.00" departDelay="42.00" arrival="25356.00" arrivalLane="32038051#0_1" arrivalPos="89.25" arrivalSpeed="18.51" duration="38.00" routeLength="203.79" waitingTime="13.00" waitingCount="1" stopTime="0.00" timeLoss="27.22" rerouteNo="0" devices="tripinfo_110905_401_0 routing_110905_401_0" vType="pkw" speedFactor="0.99" vaporized=""/>
    <tripinfo id="118931_405_0" depart="25321.00" departLane="23429231#1_0" departPos="4.40" departSpeed="0.00" departDelay="44.00" arrival="25358.00" arrivalLane="32038051#0_0" arrivalPos="89.25" arrivalSpeed="20.43" duration="37.00" routeLength="203.79" waitingTime="12.00" waitingCount="1" stopTime="0.00" timeLoss="26.47" rerouteNo="0" devices="tripinfo_118931_405_0 routing_118931_405_0" vType="pkw" speedFactor="1.08" vaporized=""/>
    <tripinfo id="94647_393_0" depart="25324.00" departLane="23429231#1_0" departPos="4.40" departSpeed="0.00" departDelay="46.00" arrival="25358.00" arrivalLane="32038051#0_1" arrivalPos="89.25" arrivalSpeed="21.52" duration="34.00" routeLength="203.79" waitingTime="8.00" waitingCount="1" stopTime="0.00" timeLoss="24.19" rerouteNo="0" devices="tripinfo_94647_393_0 routing_94647_393_0" vType="pkw" speedFactor="1.14" vaporized=""/>
    <tripinfo id="157203_421_0" depart="25326.00" departLane="23429231#1_0" departPos="4.40" departSpeed="0.00" departDelay="46.00" arrival="25359.00" arrivalLane="32038051#0_0" arrivalPos="89.25" arrivalSpeed="19.99" duration="33.00" routeLength="203.79" waitingTime="9.00" waitingCount="1" stopTime="0.00" timeLoss="22.96" rerouteNo="0" devices="tripinfo_157203_421_0 routing_157203_421_0" vType="pkw" speedFactor="1.09" vaporized=""/>
    <tripinfo id="139731_413_0" depart="25329.00" departLane="23429231#1_0" departPos="4.40" departSpeed="0.00" departDelay="49.00" arrival="25359.00" arrivalLane="32038051#0_1" arrivalPos="89.25" arrivalSpeed="20.61" duration="30.00" routeLength="203.79" waitingTime="6.00" waitingCount="1" stopTime="0.00" timeLoss="20.59" rerouteNo="0" devices="tripinfo_139731_413_0 routing_139731_413_0" vType="pkw" speedFactor="1.12" vaporized=""/>
    <tripinfo id="137559_412_0" depart="25332.00" departLane="23429231#1_0" departPos="4.40" departSpeed="0.00" departDelay="50.00" arrival="25361.00" arrivalLane="32038051#0_0" arrivalPos="89.25" arrivalSpeed="21.30" duration="29.00" routeLength="203.79" waitingTime="5.00" waitingCount="1" stopTime="0.00" timeLoss="18.59" rerouteNo="0" devices="tripinfo_137559_412_0 routing_137559_412_0" vType="pkw" speedFactor="1.10" vaporized=""/>
    <tripinfo id="106268_399_0" depart="25334.00" departLane="23429231#1_0" departPos="4.40" departSpeed="0.00" departDelay="52.00" arrival="25361.00" arrivalLane="32038051#0_1" arrivalPos="89.25" arrivalSpeed="18.98" duration="27.00" routeLength="203.79" waitingTime="1.00" waitingCount="1" stopTime="0.00" timeLoss="16.74" rerouteNo="0" devices="tripinfo_106268_399_0 routing_106268_399_0" vType="pkw" speedFactor="1.03" vaporized=""/>
    <tripinfo id="149973_417_0" depart="25344.00" departLane="23429231#1_0" departPos="4.40" departSpeed="0.00" departDelay="0.00" arrival="25362.00" arrivalLane="32038051#0_0" arrivalPos="89.25" arrivalSpeed="18.43" duration="18.00" routeLength="203.79" waitingTime="0.00" waitingCount="0" stopTime="0.00" timeLoss="7.55" rerouteNo="0" devices="tripinfo_149973_417_0 routing_149973_417_0" vType="pkw" speedFactor="1.01" vaporized=""/>
    <tripinfo id="133688_411_0" depart="25337.00" departLane="23429231#1_0" departPos="4.40" departSpeed="0.00" departDelay="53.00" arrival="25363.00" arrivalLane="32038051#0_1" arrivalPos="89.25" arrivalSpeed="18.39" duration="26.00" routeLength="203.79" waitingTime="0.00" waitingCount="0" stopTime="0.00" timeLoss="15.11" rerouteNo="0" devices="tripinfo_133688_411_0 routing_133688_411_0" vType="pkw" speedFactor="1.00" vaporized=""/>
    <tripinfo id="127662_407_0" depart="25346.00" departLane="23429231#1_0" departPos="4.40" departSpeed="0.00" departDelay="2.00" arrival="25366.00" arrivalLane="32324544#0_1" arrivalPos="90.48" arrivalSpeed="20.65" duration="20.00" routeLength="203.50" waitingTime="0.00" waitingCount="0" stopTime="0.00" timeLoss="10.14" rerouteNo="0" devices="tripinfo_127662_407_0 routing_127662_407_0" vType="pkw" speedFactor="1.09" vaporized=""/>
    <tripinfo id="133819_411_0" depart="25349.00" departLane="23429231#1_0" departPos="4.40" departSpeed="0.00" departDelay="2.00" arrival="25368.00" arrivalLane="32038051#0_0" arrivalPos="89.25" arrivalSpeed="13.78" duration="19.00" routeLength="203.79" waitingTime="0.00" waitingCount="0" stopTime="0.00" timeLoss="3.92" rerouteNo="0" devices="tripinfo_133819_411_0 routing_133819_411_0" vType="pkw" speedFactor="0.73" vaporized=""/>
    <tripinfo id="162096_421_0" depart="25306.00" departLane="130165204_0" departPos="4.40" departSpeed="0.00" departDelay="0.00" arrival="25369.00" arrivalLane="32038051#0_1" arrivalPos="89.25" arrivalSpeed="18.34" duration="63.00" routeLength="410.03" waitingTime="19.00" waitingCount="2" stopTime="0.00" timeLoss="38.30" rerouteNo="1" devices="tripinfo_162096_421_0 routing_162096_421_0" vType="pkw" speedFactor="1.08" vaporized=""/>
    <tripinfo id="175147_428_0" depart="25324.00" departLane="130165204_0" departPos="4.40" departSpeed="0.00" departDelay="0.00" arrival="25370.00" arrivalLane="32038051#0_1" arrivalPos="89.25" arrivalSpeed="19.76" duration="46.00" routeLength="410.03" waitingTime="6.00" waitingCount="1" stopTime="0.00" timeLoss="20.11" rerouteNo="1" devices="tripinfo_175147_428_0 routing_175147_428_0" vType="pkw" speedFactor="1.02" vaporized=""/>
    <tripinfo id="137244_412_0" depart="25296.00" departLane="-32038056#3_0" departPos="4.40" departSpeed="0.00" departDelay="2.00" arrival="25372.00" arrivalLane="-28198821#4_1" arrivalPos="57.10" arrivalSpeed="15.27" duration="76.00" routeLength="437.47" waitingTime="32.00" waitingCount="2" stopTime="0.00" timeLoss="47.49" rerouteNo="0" devices="tripinfo_137244_412_0 routing_137244_412_0" vType="pkw" speedFactor="1.12" vaporized=""/>
    <tripinfo id="85818_390_0" depart="25280.00" departLane="-32038056#3_0" departPos="4.40" departSpeed="0.00" departDelay="0.00" arrival="25373.00" arrivalLane="32038051#0_0" arrivalPos="89.25" arrivalSpeed="20.49" duration="93.00" routeLength="446.95" waitingTime="43.00" waitingCount="3" stopTime="0.00" timeLoss="65.52" rerouteNo="0" devices="tripinfo_85818_390_0 routing_85818_390_0" vType="pkw" speedFactor="1.13" vaporized=""/>
    <tripinfo id="86583_391_0" depart="25289.00" departLane="-32038056#3_0" departPos="4.40" departSpeed="0.00" departDelay="0.00" arrival="25374.00" arrivalLane="32038051#0_0" arrivalPos="89.25" arrivalSpeed="19.87" duration="85.00" routeLength="446.95" waitingTime="38.00" waitingCount="2" stopTime="0.00" timeLoss="56.49" rerouteNo="0" devices="tripinfo_86583_391_0 routing_86583_391_0" vType="pkw" speedFactor="1.06" vaporized=""/>
    <tripinfo id="142412_415_0" depart="25307.00" departLane="-32038056#3_0" departPos="4.40" departSpeed="0.00" departDelay="0.00" arrival="25374.00" arrivalLane="-28198821#4_1" arrivalPos="57.10" arrivalSpeed="14.21" duration="67.00" routeLength="437.47" waitingTime="23.00" waitingCount="1" stopTime="0.00" timeLoss="37.46" rerouteNo="0" devices="tripinfo_142412_415_0 routing_142412_415_0" vType="pkw" speedFactor="1.07" vaporized=""/>
    <tripinfo id="120878_405_0" depart="25291.00" departLane="-32038056#3_0" departPos="4.40" departSpeed="0.00" departDelay="0.00" arrival="25376.00" arrivalLane="32038051#0_0" arrivalPos="89.25" arrivalSpeed="20.17" duration="85.00" routeLength="446.95" waitingTime="37.00" waitingCount="2" stopTime="0.00" timeLoss="56.32" rerouteNo="0" devices="tripinfo_120878_405_0 routing_120878_405_0" vType="pkw" speedFactor="1.08" vaporized=""/>