<?xml version="1.0" encoding="UTF-8"?>

<!-- generated on 2025-04-21 21:21:19 by Eclipse SUMO sumo Version 1.12.0
<configuration xmlns:xsi="http://www.w3.org/2001/XMLSchema-instance" xsi:noNamespaceSchemaLocation="http://sumo.dlr.de/xsd/sumoConfiguration.xsd">

    <input>
        <net-file value="/home/dale/Desktop/RESCO/resco_benchmark/environments/cologne1/cologne1.net.xml"/>
        <route-files value="/home/dale/Desktop/RESCO/resco_benchmark/environments/cologne1/cologne1.rou.xml"/>
    </input>

    <output>
        <tripinfo-output value="/home/dale/Desktop/RESCO/results/IDQN-tr0-cologne1-0-drq_norm-wait_norm/tripinfo_2.xml"/>
        <tripinfo-output.write-unfinished value="true"/>
    </output>

    <time>
        <begin value="25200"/>
        <end value="28800"/>
    </time>

    <processing>
        <time-to-teleport value="-1"/>
    </processing>

    <report>
        <no-warnings value="true"/>
        <no-step-log value="true"/>
    </report>

    <traci_server>
        <remote-port value="45481"/>
    </traci_server>

    <random_number>
        <random value="true"/>
    </random_number>

</configuration>
-->

<tripinfos xmlns:xsi="http://www.w3.org/2001/XMLSchema-instance" xsi:noNamespaceSchemaLocation="http://sumo.dlr.de/xsd/tripinfo_file.xsd">
    <tripinfo id="124779_406_0" depart="25205.00" departLane="28198821#3_0" departPos="4.40" departSpeed="0.00" departDelay="0.00" arrival="25229.00" arrivalLane="32038051#0_1" arrivalPos="89.25" arrivalSpeed="18.39" duration="24.00" routeLength="170.57" waitingTime="4.00" waitingCount="1" stopTime="0.00" timeLoss="13.17" rerouteNo="0" devices="tripinfo_124779_406_0 routing_124779_406_0" vType="pkw" speedFactor="1.00" vaporized=""/>
    <tripinfo id="98305_395_0" depart="25211.00" departLane="28198821#3_0" departPos="4.40" departSpeed="0.00" departDelay="0.00" arrival="25232.00" arrivalLane="32038051#0_1" arrivalPos="89.25" arrivalSpeed="20.01" duration="21.00" routeLength="170.57" waitingTime="0.00" waitingCount="0" stopTime="0.00" timeLoss="11.45" rerouteNo="0" devices="tripinfo_98305_395_0 routing_98305_395_0" vType="pkw" speedFactor="1.10" vaporized=""/>
    <tripinfo id="102535_396_0" depart="25218.00" departLane="28198821#3_0" departPos="4.40" departSpeed="0.00" departDelay="0.00" arrival="25234.00" arrivalLane="32038051#0_1" arrivalPos="89.25" arrivalSpeed="19.29" duration="16.00" routeLength="170.57" waitingTime="0.00" waitingCount="0" stopTime="0.00" timeLoss="5.97" rerouteNo="0" devices="tripinfo_102535_396_0 routing_102535_396_0" vType="pkw" speedFactor="1.01" vaporized=""/>
    <tripinfo id="147209_416_0" depart="25220.00" departLane="28198821#3_0" departPos="4.40" departSpeed="0.00" departDelay="0.00" arrival="25236.00" arrivalLane="32038051#0_1" arrivalPos="89.25" arrivalSpeed="18.82" duration="16.00" routeLength="170.57" waitingTime="0.00" waitingCount="0" stopTime="0.00" timeLoss="5.74" rerouteNo="0" devices="tripinfo_147209_416_0 routing_147209_416_0" vType="pkw" speedFactor="1.00" vaporized=""/>
    <tripinfo id="151372_418_0" depart="25207.00" departLane="130165204_0" departPos="4.40" departSpeed="0.00" departDelay="0.00" arrival="25249.00" arrivalLane="32038051#0_1" arrivalPos="89.25" arrivalSpeed="21.73" duration="42.00" routeLength="410.03" waitingTime="2.00" waitingCount="1" stopTime="0.00" timeLoss="17.67" rerouteNo="1" devices="tripinfo_151372_418_0 routing_151372_418_0" vType="pkw" speedFactor="1.12" vaporized=""/>
    <tripinfo id="149029_417_0" depart="25236.00" departLane="27115123#2_0" departPos="4.40" departSpeed="0.00" departDelay="0.00" arrival="25252.00" arrivalLane="32038051#0_1" arrivalPos="89.25" arrivalSpeed="16.16" duration="16.00" routeLength="196.41" waitingTime="0.00" waitingCount="0" stopTime="0.00" timeLoss="3.82" rerouteNo="1" devices="tripinfo_149029_417_0 routing_149029_417_0" vType="pkw" speedFactor="0.86" vaporized=""/>
    <tripinfo id="123965_406_0" depart="25218.00" departLane="-32038056#3_0" departPos="4.40" departSpeed="0.00" departDelay="0.00" arrival="25257.00" arrivalLane="-28198821#4_0" arrivalPos="57.10" arrivalSpeed="11.75" duration="39.00" routeLength="437.47" waitingTime="0.00" waitingCount="0" stopTime="0.00" timeLoss="4.33" rerouteNo="0" devices="tripinfo_123965_406_0 routing_123965_406_0" vType="pkw" speedFactor="0.92" vaporized=""/>
    <tripinfo id="91582_392_0" depart="25220.00" departLane="-32038056#3_0" departPos="4.40" departSpeed="0.00" departDelay="2.00" arrival="25257.00" arrivalLane="32324544#0_1" arrivalPos="90.48" arrivalSpeed="21.49" duration="37.00" routeLength="465.51" waitingTime="0.00" waitingCount="0" stopTime="0.00" timeLoss="9.17" rerouteNo="0" devices="tripinfo_91582_392_0 routing_91582_392_0" vType="pkw" speedFactor="1.16" vaporized=""/>
    <tripinfo id="160150_421_0" depart="25223.00" departLane="-32038056#3_0" departPos="4.40" departSpeed="0.00" departDelay="4.00" arrival="25259.00" arrivalLane="32038051#0_0" arrivalPos="89.25" arrivalSpeed="19.09" duration="36.00" routeLength="446.95" waitingTime="0.00" waitingCount="0" stopTime="0.00" timeLoss="5.99" rerouteNo="0" devices="tripinfo_160150_421_0 routing_160150_421_0" vType="pkw" speedFactor="1.03" vaporized=""/>
    <tripinfo id="162814_422_0" depart="25233.00" departLane="-32038056#3_0" departPos="4.40" departSpeed="0.00" departDelay="0.00" arrival="25289.00" arrivalLane="32038051#0_0" arrivalPos="89.25" arrivalSpeed="16.33" duration="56.00" routeLength="446.95" waitingTime="11.00" waitingCount="1" stopTime="0.00" timeLoss="21.33" rerouteNo="0" devices="tripinfo_162814_422_0 routing_162814_422_0" vType="pkw" speedFactor="0.89" vaporized=""/>
    <tripinfo id="130602_409_0" depart="25268.00" departLane="-32038056#3_0" departPos="4.40" departSpeed="0.00" departDelay="0.00" arrival="25308.00" arrivalLane="-28198821#4_0" arrivalPos="57.10" arrivalSpeed="13.52" duration="40.00" routeLength="437.47" waitingTime="0.00" waitingCount="0" stopTime="0.00" timeLoss="8.90" rerouteNo="0" devices="tripinfo_130602_409_0 routing_130602_409_0" vType="pkw" speedFactor="1.03" vaporized=""/>
    <tripinfo id="128446_408_0" depart="25273.00" departLane="-32038056#3_0" departPos="4.40" departSpeed="0.00" departDelay="0.00" arrival="25310.00" arrivalLane="32324544#0_1" arrivalPos="90.48" arrivalSpeed="19.82" duration="37.00" routeLength="465.51" waitingTime="0.00" waitingCount="0" stopTime="0.00" timeLoss="6.90" rerouteNo="0" devices="tripinfo_128446_408_0 routing_128446_408_0" vType="pkw" speedFactor="1.06" vaporized=""/>
    <tripinfo id="115444_403_0" depart="25294.00" departLane="28198821#3_0" departPos="4.40" departSpeed="0.00" departDelay="0.00" arrival="25310.00" arrivalLane="32038051#0_1" arrivalPos="89.25" arrivalSpeed="19.40" duration="16.00" routeLength="170.57" waitingTime="0.00" waitingCount="0" stopTime="0.00" timeLoss="5.95" rerouteNo="0" devices="tripinfo_115444_403_0 routing_115444_403_0" vType="pkw" speedFactor="1.06" vaporized=""/>
    <tripinfo id="103540_397_0" depart="25300.00" departLane="28198821#3_0" departPos="4.40" departSpeed="0.00" departDelay="0.00" arrival="25313.00" arrivalLane="32038051#0_1" arrivalPos="89.25" arrivalSpeed="21.68" duration="13.00" routeLength="170.57" waitingTime="0.00" waitingCount="0" stopTime="0.00" timeLoss="4.47" rerouteNo="0" devices="tripinfo_103540_397_0 routing_103540_397_0" vType="pkw" speedFactor="1.17" vaporized=""/>
    <tripinfo id="83516_390_0" depart="25276.00" departLane="-32038056#3_0" departPos="4.40" departSpeed="0.00" departDelay="1.00" arrival="25316.00" arrivalLane="32324544#0_1" arrivalPos="90.48" arrivalSpeed="16.95" duration="40.00" routeLength="465.51" waitingTime="0.00" waitingCount="0" stopTime="0.00" timeLoss="4.90" rerouteNo="0" devices="tripinfo_83516_390_0 routing_83516_390_0" vType="pkw" speedFactor="0.91" vaporized=""/>
    <tripinfo id="121258_405_0" depart="25240.00" departLane="23429231#1_0" departPos="4.40" departSpeed="0.00" departDelay="0.00" arrival="25323.00" arrivalLane="32038051#0_1" arrivalPos="89.25" arrivalSpeed="18.69" duration="83.00" routeLength="203.79" waitingTime="60.00" waitingCount="1" stopTime="0.00" timeLoss="71.99" rerouteNo="0" devices="tripinfo_121258_405_0 routing_121258_405_0" vType="pkw" speedFactor="1.02" vaporized=""/>
    <tripinfo id="126742_407_0" depart="25242.00" departLane="23429231#1_0" departPos="4.40" departSpeed="0.00" departDelay="2.00" arrival="25323.00" arrivalLane="32038051#0_0" arrivalPos="89.25" arrivalSpeed="19.25" duration="81.00" routeLength="203.79" waitingTime="55.00" waitingCount="1" stopTime="0.00" timeLoss="70.26" rerouteNo="0" devices="tripinfo_126742_407_0 routing_126742_407_0" vType="pkw" speedFactor="1.02" vaporized=""/>
    <tripinfo id="148629_417_0" depart="25284.00" departLane="27115123#2_0" departPos="4.40" departSpeed="0.00" departDelay="0.00" arrival="25323.00" arrivalLane="32324544#0_0" arrivalPos="90.48" arrivalSpeed="18.17" duration="39.00" routeLength="198.06" waitingTime="16.00" waitingCount="1" stopTime="0.00" timeLoss="27.89" rerouteNo="1" devices="tripinfo_148629_417_0 routing_148629_417_0" vType="pkw" speedFactor="0.98" vaporized=""/>
    <tripinfo id="102501_396_0" depart="25245.00" departLane="23429231#1_0" departPos="4.40" departSpeed="0.00" departDelay="1.00" arrival="25325.00" arrivalLane="32038051#0_0" arrivalPos="89.25" arrivalSpeed="17.10" duration="80.00" routeLength="203.79" waitingTime="55.00" waitingCount="1" stopTime="0.00" timeLoss="70.04" rerouteNo="0" devices="tripinfo_102501_396_0 routing_102501_396_0" vType="pkw" speedFactor="1.12" vaporized=""/>
    <tripinfo id="120663_405_0" depart="25248.00" departLane="23429231#1_0" departPos="4.40" departSpeed="0.00" departDelay="2.00" arrival="25325.00" arrivalLane="32038051#0_1" arrivalPos="89.25" arrivalSpeed="17.43" duration="77.00" routeLength="203.79" waitingTime="51.00" waitingCount="1" stopTime="0.00" timeLoss="65.07" rerouteNo="0" devices="tripinfo_120663_405_0 routing_120663_405_0" vType="pkw" speedFactor="0.93" vaporized=""/>
    <tripinfo id="113509_402_0" depart="25251.00" departLane="23429231#1_0" departPos="4.40" departSpeed="0.00" departDelay="3.00" arrival="25325.00" arrivalLane="-28198821#4_1" arrivalPos="57.10" arrivalSpeed="13.41" duration="74.00" routeLength="179.90" waitingTime="51.00" waitingCount="1" stopTime="0.00" timeLoss="63.11" rerouteNo="0" devices="tripinfo_113509_402_0 routing_113509_402_0" vType="pkw" speedFactor="1.00" vaporized=""/>
    <tripinfo id="130147_409_0" depart="25254.00" departLane="23429231#1_0" departPos="4.40" departSpeed="0.00" departDelay="3.00" arrival="25326.00" arrivalLane="32038051#0_0" arrivalPos="89.25" arrivalSpeed="19.71" duration="72.00" routeLength="203.79" waitingTime="48.00" waitingCount="1" stopTime="0.00" timeLoss="61.41" rerouteNo="0" devices="tripinfo_130147_409_0 routing_130147_409_0" vType="pkw" speedFactor="1.01" vaporized=""/>
    <tripinfo id="136082_411_0" depart="25278.00" departLane="-32038056#3_0" departPos="4.40" departSpeed="0.00" departDelay="1.00" arrival="25332.00" arrivalLane="32038051#0_0" arrivalPos="89.25" arrivalSpeed="18.41" duration="54.00" routeLength="446.95" waitingTime="13.00" waitingCount="1" stopTime="0.00" timeLoss="26.44" rerouteNo="0" devices="tripinfo_136082_411_0 routing_136082_411_0" vType="pkw" speedFactor="1.10" vaporized=""/>
    <tripinfo id="85818_390_0" depart="25281.00" departLane="-32038056#3_0" departPos="4.40" departSpeed="0.00" departDelay="1.00" arrival="25334.00" arrivalLane="32038051#0_0" arrivalPos="89.25" arrivalSpeed="19.40" duration="53.00" routeLength="446.95" waitingTime="10.00" waitingCount="1" stopTime="0.00" timeLoss="23.68" rerouteNo="0" devices="tripinfo_85818_390_0 routing_85818_390_0" vType="pkw" speedFactor="1.04" vaporized=""/>
    <tripinfo id="113303_402_0" depart="25284.00" departLane="-32038056#3_0" departPos="4.40" departSpeed="0.00" departDelay="1.00" arrival="25334.00" arrivalLane="32324544#0_1" arrivalPos="90.48" arrivalSpeed="17.40" duration="50.00" routeLength="465.51" waitingTime="4.00" waitingCount="1" stopTime="0.00" timeLoss="16.36" rerouteNo="0" devices="tripinfo_113303_402_0 routing_113303_402_0" vType="pkw" speedFactor="0.93" vaporized=""/>
    <tripinfo id="86583_391_0" depart="25289.00" departLane="-32038056#3_0" departPos="4.40" departSpeed="0.00" departDelay="0.00" arrival="25336.00" arrivalLane="32038051#0_0" arrivalPos="89.25" arrivalSpeed="20.12" duration="47.00" routeLength="446.95" waitingTime="6.00" waitingCount="1" stopTime="0.00" timeLoss="17.72" rerouteNo="0" devices="tripinfo_86583_391_0 routing_86583_391_0" vType="pkw" speedFactor="1.06" vaporized=""/>
    <tripinfo id="137244_412_0" depart="25297.00" departLane="-32038056#3_0" departPos="4.40" departSpeed="0.00" departDelay="3.00" arrival="25338.00" arrivalLane="-28198821#4_1" arrivalPos="57.10" arrivalSpeed="11.56" duration="41.00" routeLength="437.47" waitingTime="0.00" waitingCount="0" stopTime="0.00" timeLoss="4.81" rerouteNo="0" devices="tripinfo_137244_412_0 routing_137244_412_0" vType="pkw" speedFactor="0.89" vaporized=""/>
    <tripinfo id="102630_396_0" depart="25257.00" departLane="23429231#1_0" departPos="4.40" departSpeed="0.00" departDelay="5.00" arrival="25353.00" arrivalLane="32038051#0_0" arrivalPos="89.25" arrivalSpeed="18.67" duration="96.00" routeLength="203.79" waitingTime="67.00" waitingCount="2" stopTime="0.00" timeLoss="85.08" rerouteNo="0" devices="tripinfo_102630_396_0 routing_102630_396_0" vType="pkw" speedFactor="1.03" vaporized=""/>
    <tripinfo id="122376_406_0" depart="25259.00" departLane="23429231#1_0" departPos="4.40" departSpeed="0.00" departDelay="5.00" arrival="25353.00" arrivalLane="32038051#0_1" arrivalPos="89.25" arrivalSpeed="20.25" duration="94.00" routeLength="203.79" waitingTime="63.00" waitingCount="2" stopTime="0.00" timeLoss="84.55" rerouteNo="0" devices="tripinfo_122376_406_0 routing_122376_406_0" vType="pkw" speedFactor="1.12" vaporized=""/>
    <tripinfo id="122194_406_0" depart="25262.00" departLane="23429231#1_0" departPos="4.40" departSpeed="0.00" departDelay="7.00" arrival="25355.00" arrivalLane="32038051#0_0" arrivalPos="89.25" arrivalSpeed="18.55" duration="93.00" routeLength="203.79" waitingTime="61.00" waitingCount="2" stopTime="0.00" timeLoss="81.33" rerouteNo="0" devices="tripinfo_122194_406_0 routing_122194_406_0" vType="pkw" speedFactor="0.97" vaporized=""/>
    <tripinfo id="135103_411_0" depart="25265.00" departLane="23429231#1_0" departPos="4.40" departSpeed="0.00" departDelay="9.00" arrival="25355.00" arrivalLane="32038051#0_1" arrivalPos="89.25" arrivalSpeed="16.72" duration="90.00" routeLength="203.79" waitingTime="58.00" waitingCount="2" stopTime="0.00" timeLoss="78.06" rerouteNo="0" devices="tripinfo_135103_411_0 routing_135103_411_0" vType="pkw" speedFactor="0.88" vaporized=""/>
    <tripinfo id="152958_419_0" depart="25267.00" departLane="23429231#1_0" departPos="4.40" departSpeed="0.00" departDelay="10.00" arrival="25356.00" arrivalLane="32038051#0_0" arrivalPos="89.25" arrivalSpeed="18.34" duration="89.00" routeLength="203.79" waitingTime="58.00" waitingCount="2" stopTime="0.00" timeLoss="77.79" rerouteNo="0" devices="tripinfo_152958_419_0 routing_152958_419_0" vType="pkw" speedFactor="0.96" vaporized=""/>
    <tripinfo id="125613_406_0" depart="25270.00" departLane="23429231#1_0" departPos="4.40" departSpeed="0.00" departDelay="12.00" arrival="25357.00" arrivalLane="32038051#0_1" arrivalPos="89.25" arrivalSpeed="19.91" duration="87.00" routeLength="203.79" waitingTime="55.00" waitingCount="2" stopTime="0.00" timeLoss="77.17" rerouteNo="0" devices="tripinfo_125613_406_0 routing_125613_406_0" vType="pkw" speedFactor="1.13" vaporized=""/>
    <tripinfo id="133955_411_0" depart="25273.00" departLane="23429231#1_0" departPos="4.40" departSpeed="0.00" departDelay="14.00" arrival="25358.00" arrivalLane="32038051#0_0" arrivalPos="89.25" arrivalSpeed="20.12" duration="85.00" routeLength="203.79" waitingTime="53.00" waitingCount="2" stopTime="0.00" timeLoss="74.88" rerouteNo="0" devices="tripinfo_133955_411_0 routing_133955_411_0" vType="pkw" speedFactor="1.13" vaporized=""/>
    <tripinfo id="120275_405_0" depart="25278.00" departLane="23429231#1_0" departPos="4.40" departSpeed="0.00" departDelay="17.00" arrival="25358.00" arrivalLane="32038051#0_1" arrivalPos="89.25" arrivalSpeed="20.41" duration="80.00" routeLength="203.79" waitingTime="47.00" waitingCount="2" stopTime="0.00" timeLoss="71.26" rerouteNo="0" devices="tripinfo_120275_405_0 routing_120275_405_0" vType="pkw" speedFactor="1.23" vaporized=""/>
    <tripinfo id="129253_408_0" depart="25276.00" departLane="23429231#1_0" departPos="4.40" departSpeed="0.00" departDelay="16.00" arrival="25359.00" arrivalLane="32038051#0_0" arrivalPos="89.25" arrivalSpeed="18.19" duration="83.00" routeLength="203.79" waitingTime="51.00" waitingCount="2" stopTime="0.00" timeLoss="71.65" rerouteNo="0" devices="tripinfo_129253_408_0 routing_129253_408_0" vType="pkw" speedFactor="0.94" vaporized=""/>
    <tripinfo id="135201_411_0" depart="25282.00" departLane="23429231#1_0" departPos="4.40" departSpeed="0.00" departDelay="18.00" arrival="25361.00" arrivalLane="32038051#0_0" arrivalPos="89.25" arrivalSpeed="20.37" duration="79.00" routeLength="203.79" waitingTime="48.00" waitingCount="2" stopTime="0.00" timeLoss="69.39" rerouteNo="0" devices="tripinfo_135201_411_0 routing_135201_411_0" vType="pkw" speedFactor="1.18" vaporized=""/>
    <tripinfo id="57065_374_0" depart="25287.00" departLane="23429231#1_0" departPos="4.40" departSpeed="0.00" departDelay="21.00" arrival="25361.00" arrivalLane="32038051#0_1" arrivalPos="89.25" arrivalSpeed="20.66" duration="74.00" routeLength="203.79" waitingTime="40.00" waitingCount="2" stopTime="0.00" timeLoss="63.89" rerouteNo="0" devices="tripinfo_57065_374_0 routing_57065_374_0" vType="pkw" speedFactor="1.08" vaporized=""/>
    <tripinfo id="134807_411_0" depart="25280.00" departLane="23429231#1_0" departPos="4.40" departSpeed="0.00" departDelay="18.00" arrival="25362.00" arrivalLane="32324544#0_1" arrivalPos="90.48" arrivalSpeed="17.05" duration="82.00" routeLength="203.50" waitingTime="46.00" waitingCount="3" stopTime="0.00" timeLoss="69.17" rerouteNo="0" devices="tripinfo_134807_411_0 routing_134807_411_0" vType="pkw" speedFactor="0.88" vaporized=""/>
    <tripinfo id="86189_391_0" depart="25284.00" departLane="23429231#1_0" departPos="4.40" departSpeed="0.00" departDelay="19.00" arrival="25362.00" arrivalLane="32038051#0_0" arrivalPos="89.25" arrivalSpeed="20.99" duration="78.00" routeLength="203.79" waitingTime="45.00" waitingCount="2" stopTime="0.00" timeLoss="68.70" rerouteNo="0" devices="tripinfo_86189_391_0 routing_86189_391_0" vType="pkw" speedFactor="1.17" vaporized=""/>
    <tripinfo id="129519_408_0" depart="25290.00" departLane="23429231#1_0" departPos="4.40" departSpeed="0.00" departDelay="23.00" arrival="25364.00" arrivalLane="32038051#0_1" arrivalPos="89.25" arrivalSpeed="16.61" duration="74.00" routeLength="203.79" waitingTime="38.00" waitingCount="2" stopTime="0.00" timeLoss="61.81" rerouteNo="0" devices="tripinfo_129519_408_0 routing_129519_408_0" vType="pkw" speedFactor="0.92" vaporized=""/>
    <tripinfo id="82015_389_0" depart="25292.00" departLane="23429231#1_0" departPos="4.40" departSpeed="0.00" departDelay="24.00" arrival="25365.00" arrivalLane="32038051#0_0" arrivalPos="89.25" arrivalSpeed="19.03" duration="73.00" routeLength="203.79" waitingTime="37.00" waitingCount="2" stopTime="0.00" timeLoss="62.51" rerouteNo="0" devices="tripinfo_82015_389_0 routing_82015_389_0" vType="pkw" speedFactor="1.09" vaporized=""/>
    <tripinfo id="136204_411_0" depart="25295.00" departLane="23429231#1_0" departPos="4.40" departSpeed="0.00" departDelay="26.00" arrival="25365.00" arrivalLane="32038051#0_1" arrivalPos="89.25" arrivalSpeed="18.88" duration="70.00" routeLength="203.79" waitingTime="35.00" waitingCount="2" stopTime="0.00" timeLoss="59.79" rerouteNo="0" devices="tripinfo_136204_411_0 routing_136204_411_0" vType="pkw" speedFactor="1.07" vaporized=""/>
    <tripinfo id="135431_411_0" depart="25298.00" departLane="23429231#1_0" departPos="4.40" departSpeed="0.00" departDelay="29.00" arrival="25366.00" arrivalLane="32038051#0_0" arrivalPos="89.25" arrivalSpeed="18.04" duration="68.00" routeLength="203.79" waitingTime="32.00" waitingCount="2" stopTime="0.00" timeLoss="56.52" rerouteNo="0" devices="tripinfo_135431_411_0 routing_135431_411_0" vType="pkw" speedFactor="0.94" vaporized=""/>
    <tripinfo id="146814_416_0" depart="25301.00" departLane="23429231#1_0" departPos="4.40" departSpeed="0.00" departDelay="30.00" arrival="25367.00" arrivalLane="32038051#0_1" arrivalPos="89.25" arrivalSpeed="19.02" duration="66.00" routeLength="203.79" waitingTime="31.00" waitingCount="2" stopTime="0.00" timeLoss="55.03" rerouteNo="0" devices="tripinfo_146814_416_0 routing_146814_416_0" vType="pkw" speedFactor="1.04" vaporized=""/>
    <tripinfo id="162096_421_0" depart="25306.00" departLane="130165204_0" departPos="4.40" departSpeed="0.00" departDelay="0.00" arrival="25371.00" arrivalLane="32038051#0_1" arrivalPos="89.25" arrivalSpeed="18.82" duration="65.00" routeLength="410.03" waitingTime="23.00" waitingCount="2" stopTime="0.00" timeLoss="44.82" rerouteNo="1" devices="tripinfo_162096_421_0 routing_162096_421_0" vType="pkw" speedFactor="1.31" vaporized=""/>
    <tripinfo id="175147_428_0" depart="25324.00" departLane="130165204_0" departPos="4.40" departSpeed="0.00" departDelay="0.00" arrival="25374.00" arrivalLane="32038051#0_1" arrivalPos="89.25" arrivalSpeed="19.56" duration="50.00" routeLength="410.03" waitingTime="9.00" waitingCount="1" stopTime="0.00" timeLoss="24.16" rerouteNo="1" devices="tripinfo_175147_428_0 routing_175147_428_0" vType="pkw" speedFactor="1.04" vaporized=""/>
    <tripinfo id="161721_421_0" depart="25337.00" departLane="130165204_0" departPos="4.40" departSpeed="0.00" departDelay="0.00" arrival="25377.00" arrivalLane="32038051#0_1" arrivalPos="89.25" arrivalSpeed="15.76" duration="40.00" routeLength="410.03" waitingTime="0.00" waitingCount="0" stopTime="0.00" timeLoss="8.60" rerouteNo="1" devices="tripinfo_161721_421_0 routing_161721_421_0" vType="pkw" speedFactor="0.85" vaporized=""/>
    <tripinfo id="120878_405_0" depart="25292.00" departLane="-32038056#3_0" departPos="4.40" departSpeed="0.00" departDelay="1.00" arrival="25379.00" arrivalLane="32038051#0_0" arrivalPos="89.25" arrivalSpeed="18.21" duration="87.00" routeLength="446.95" waitingTime="37.00" waitingCount="2" stopTime="0.00" timeLoss="54.73" rerouteNo="0" devices="tripinfo_120878_405_0 routing_120878_405_0" vType="pkw" speedFactor="0.96" vaporized=""/>
    <tripinfo id="142412_415_0" depart="25307.00" departLane="-32038056#3_0" departPos="4.40" departSpeed="0.00" departDelay="0.00" arrival="25379.00" arrivalLane="-28198821#4_0" arrivalPos="57.10" arrivalSpeed="12.11" duration="72.00" routeLength="437.47" waitingTime="26.00" waitingCount="1" stopTime="0.00" timeLoss="38.57" rerouteNo="0" devices="tripinfo_142412_415_0 routing_142412_415_0" vType="pkw" speedFactor="0.96" vaporized=""/>
    <tripinfo id="125316_406_0" depart="25304.00" departLane="23429231#1_0" departPos="4.40" departSpeed="0.00" departDelay="33.00" arrival="25393.00" arrivalLane="32038051#0_0" arrivalPos="89.25" arrivalSpeed="18.56" duration="89.00" routeLength="203.79" waitingTime="49.00" waitingCount="3" stopTime="0.00" timeLoss="77.67" rerouteNo="0" devices="tripinfo_125316_406_0 routing_125316_406_0" vType="pkw" speedFactor="1.00" vaporized=""/>
    <tripinfo id="118286_405_0" depart="25306.00" departLane="23429231#1_0" departPos="4.40" departSpeed="0.00" departDelay="33.00" arrival="25393.00" arrivalLane="32038051#0_1" arrivalPos="89.25" arrivalSpeed="18.99" duration="87.00" routeLength="203.79" waitingTime="45.00" waitingCount="3" stopTime="0.00" timeLoss="76.00" rerouteNo="0" devices="tripinfo_118286_405_0 routing_118286_405_0" vType="pkw" speedFactor="1.02" vaporized=""/>
    <tripinfo id="108236_400_0" depart="25311.00" departLane="23429231#1_0" departPos="4.40" departSpeed="0.00" departDelay="37.00" arrival="25394.00" arrivalLane="32038051#0_1" arrivalPos="89.25" arrivalSpeed="19.59" duration="83.00" routeLength="203.79" waitingTime="44.00" waitingCount="3" stopTime="0.00" timeLoss="72.61" rerouteNo="0" devices="tripinfo_108236_400_0 routing_108236_400_0" vType="pkw" speedFactor="1.03" vaporized=""/>
    <tripinfo id="134435_411_0" depart="25308.00" departLane="23429231#1_0" departPos="4.40" departSpeed="0.00" departDelay="35.00" arrival="25395.00" arrivalLane="32038051#0_0" arrivalPos="89.25" arrivalSpeed="16.94" duration="87.00" routeLength="203.79" waitingTime="44.00" waitingCount="3" stopTime="0.00" timeLoss="75.21" rerouteNo="0" devices="tripinfo_134435_411_0 routing_134435_411_0" vType="pkw" speedFactor="0.91" vaporized=""/>
    <tripinfo id="110905_401_0" depart="25314.00" departLane="23429231#1_0" departPos="4.40" departSpeed="0.00" departDelay="38.00" arrival="25396.00" arrivalLane="32038051#0_1" arrivalPos="89.25" arrivalSpeed="17.58" duration="82.00" routeLength="203.79" waitingTime="40.00" waitingCount="3" stopTime="0.00" timeLoss="70.48" rerouteNo="0" devices="tripinfo_110905_401_0 routing_110905_401_0" vType="pkw" speedFactor="0.95" vaporized=""/>
    <tripinfo id="146536_416_0" depart="25312.00" departLane="23429231#1_0" departPos="4.40" departSpeed="0.00" departDelay="37.00" arrival="25397.00" arrivalLane="32038051#0_0" arrivalPos="89.25" arrivalSpeed="19.51" duration="85.00" routeLength="203.79" waitingTime="43.00" waitingCount="3" stopTime="0.00" timeLoss="74.00" rerouteNo="0" devices="tripinfo_146536_416_0 routing_146536_416_0" vType="pkw" speedFactor="1.03" vaporized=""/>
    <tripinfo id="118931_405_0" depart="25315.00" departLane="23429231#1_0" departPos="4.40" departSpeed="0.00" departDelay="38.00" arrival="25398.00" arrivalLane="32038051#0_0" arrivalPos="89.25" arrivalSpeed="17.53" duration="83.00" routeLength="203.79" waitingTime="41.00" waitingCount="3" stopTime="0.00" timeLoss="72.67" rerouteNo="0" devices="tripinfo_118931_405_0 routing_118931_405_0" vType="pkw" speedFactor="1.03" vaporized=""/>
    <tripinfo id="94647_393_0" depart="25332.00" departLane="23429231#1_0" departPos="4.40" departSpeed="0.00" departDelay="54.00" arrival="25398.00" arrivalLane="32038051#0_1" arrivalPos="89.25" arrivalSpeed="18.01" duration="66.00" routeLength="203.79" waitingTime="31.00" waitingCount="3" stopTime="0.00" timeLoss="54.32" rerouteNo="0" devices="tripinfo_94647_393_0 routing_94647_393_0" vType="pkw" speedFactor="0.97" vaporized=""/>
    <tripinfo id="139731_413_0" depart="25337.00" departLane="23429231#1_0" departPos="4.40" departSpeed="0.00" departDelay="57.00" arrival="25399.00" arrivalLane="32038051#0_1" arrivalPos="89.25" arrivalSpeed="16.18" duration="62.00" routeLength="203.79" waitingTime="29.00" waitingCount="2" stopTime="0.00" timeLoss="50.08" rerouteNo="0" devices="tripinfo_139731_413_0 routing_139731_413_0" vType="pkw" speedFactor="0.88" vaporized=""/>
    <tripinfo id="157203_421_0" depart="25334.00" departLane="23429231#1_0" departPos="4.40" departSpeed="0.00" departDelay="54.00" arrival="25400.00" arrivalLane="32038051#0_0" arrivalPos="89.25" arrivalSpeed="18.46" duration="66.00" routeLength="203.79" waitingTime="31.00" waitingCount="2" stopTime="0.00" timeLoss="55.57" rerouteNo="0" devices="tripinfo_157203_421_0 routing_157203_421_0" vType="pkw" speedFactor="1.05" vaporized=""/>
    <tripinfo id="106268_399_0" depart="25341.00" departLane="23429231#1_0" departPos="4.40" departSpeed="0.00" departDelay="59.00" arrival="25401.00" arrivalLane="32038051#0_1" arrivalPos="89.25" arrivalSpeed="17.43" duration="60.00" routeLength="203.79" waitingTime="27.00" waitingCount="2" stopTime="0.00" timeLoss="47.84" rerouteNo="0" devices="tripinfo_106268_399_0 routing_106268_399_0" vType="pkw" speedFactor="0.90" vaporized=""/>
    <tripinfo id="137559_412_0" depart="25339.00" departLane="23429231#1_0" departPos="4.40" departSpeed="0.00" departDelay="57.00" arrival="25402.00" arrivalLane="32038051#0_0" arrivalPos="89.25" arrivalSpeed="19.49" duration="63.00" routeLength="203.79" waitingTime="30.00" waitingCount="3" stopTime="0.00" timeLoss="52.24" rerouteNo="0" devices="tripinfo_137559_412_0 routing_137559_412_0" vType="pkw" speedFactor="1.07" vaporized=""/>
    <tripinfo id="133688_411_0" depart="25342.00" departLane="23429231#1_0" departPos="4.40" departSpeed="0.00" departDelay="58.00" arrival="25403.00" arrivalLane="32038051#0_0" arrivalPos="89.25" arrivalSpeed="16.19" duration="61.00" routeLength="203.79" waitingTime="27.00" waitingCount="2" stopTime="0.00" timeLoss="48.54" rerouteNo="0" devices="tripinfo_133688_411_0 routing_133688_411_0" vType="pkw" speedFactor="0.85" vaporized=""/>
    <tripinfo id="149973_417_0" depart="25361.00" departLane="23429231#1_0" departPos="4.40" departSpeed="0.00" departDelay="17.00" arrival="25403.00" arrivalLane="32038051#0_1" arrivalPos="89.25" arrivalSpeed="15.53" duration="42.00" routeLength="203.79" waitingTime="14.00" waitingCount="1" stopTime="0.00" timeLoss="29.37" rerouteNo="0" devices="tripinfo_149973_417_0 routing_149973_417_0" vType="pkw" speedFactor="0.86" vaporized=""/>
    <tripinfo id="133819_411_0" depart="25366.00" departLane="23429231#1_0" departPos="4.40" departSpeed="0.00" departDelay="19.00" arrival="25405.00" arrivalLane="32038051#0_0" arrivalPos="89.25" arrivalSpeed="19.41" duration="39.00" routeLength="203.79" waitingTime="14.00" waitingCount="1" stopTime="0.00" timeLoss="28.96" rerouteNo="0" devices="tripinfo_133819_411_0 routing_133819_411_0" vType="pkw" speedFactor="1.12" vaporized=""/>